72
 energy: -125.177004083816 gnorm: 0.000266598150 xtb: 6.6.1 (8d0f1dd)
C           -5.71666699310365        2.27047845464144       -0.05886760765793
C           -5.08130070769248        3.46656219980213       -0.04635580098334
C           -3.65788596180102        3.55434697409518       -0.02900828030063
C           -2.98573090291366        4.77460043926515       -0.01596045184393
C           -1.59441271558172        4.84481173982994        0.00092880583396
C           -0.83680693438266        3.64433966233292        0.00502297888182
C            0.57778052894274        3.69420676885621        0.02210483241967
C            1.32719023997793        2.49844935824508        0.02612203738981
C            2.73745385764750        2.54675627835584        0.04314504381440
C            3.39819291693930        3.80308824049069        0.05619772404636
C            4.82425922232691        3.81575355141116        0.07325987270151
C            5.54237703659727        2.66738287553363        0.07710095477381
C            4.90674920937090        1.39069606215399        0.06426688041395
C            5.62740446251006        0.19837748950722        0.06796042718741
C            4.99260544310188       -1.04172362449126        0.05528693408337
C            3.57426064984477       -1.09758348517490        0.03813401929620
C            2.91021052533100       -2.34766465823237        0.02506817434360
C            3.65788572052808       -3.55434714583852        0.02902733406075
C            5.08130047247236       -3.46656238276472        0.04637409817969
C            5.71666690806515       -2.27047859619104        0.05887378704606
C            2.98573059012480       -4.77460063232371        0.01598725670613
C            1.59441246431755       -4.84481189974146       -0.00090675465445
C            0.89240776043169       -6.08623212324699       -0.01439241820971
C           -0.46107634750898       -6.13394518249059       -0.03074535511452
C           -1.24886325482213       -4.94504314922195       -0.03525824690765
C           -0.57778058211346       -3.69420688011395       -0.02210024884584
C            0.83680679366800       -3.64433979225982       -0.00501062532721
C            1.50004623425248       -2.39878360380573        0.00802952577322
C            0.74789341864313       -1.19598611736948        0.00400286224996
C           -0.66171082777749       -1.24567755163863       -0.01302398696743
C           -1.32719022023895       -2.49844944204399       -0.02612384397349
C           -2.73745371842234       -2.54675629890182       -0.04315616638636
C           -3.39819271054433       -3.80308824043607       -0.05621618425866
C           -2.64167356013660       -4.97297804579444       -0.05200043142257
C           -4.82425885534480       -3.81575346502989       -0.07329273055417
C           -5.54237663300480       -2.66738276955306       -0.07713554202816
C           -4.90674896045211       -1.39069602274909       -0.06428855059820
C           -3.48799106962904       -1.34654223552551       -0.04717216773525
C           -2.82723650201228       -0.09966589043953       -0.03414976191848
C           -1.40960427623842       -0.04969146886975       -0.01702532050863
C           -0.74789345900275        1.19598601409401       -0.00399927303820
C           -1.50004634205304        2.39878348106368       -0.00802059773948
C           -2.91021064465171        2.34766451732309       -0.02505804946012
C           -3.57426067643903        1.09758338700372       -0.03813295664781
C           -4.99260540280373        1.04172354710954       -0.05529040083627
C           -5.62740425912422       -0.19837750498679       -0.06797731763309
C            0.66171082486645        1.24567744902586        0.01302486985312
C            1.40960426847468        0.04969138021314        0.01702575225967
C            2.82723654834957        0.09966582021194        0.03414617745992
C            3.48799121367954        1.34654221917230        0.04715975270298
C            2.64167368196369        4.97297800294324        0.05198976055119
C            1.24886324006762        4.94504304709602        0.03526098965097
C            0.46107619666328        6.13394503876325        0.03075997727368
C           -0.89240803422032        6.08623194393912        0.01441743045045
H           -6.79661620850255        2.22250107463435       -0.07195342261236
H           -5.64608065236992        4.38839640869714       -0.04929658397941
H           -3.55922375358762        5.69169552293814       -0.01902482307472
H            5.32264094010664        4.77506641838887        0.08315138818874
H            6.62302483599572        2.69557093193988        0.09010694058697
H            6.70830435436662        0.23648142613417        0.08101271231728
H            5.64608030793039       -4.38839663790104        0.04932313268775
H            6.79661614649667       -2.22250117900356        0.07195759458008
H            3.55922334958828       -5.69169576401280        0.01905979870574
H            1.47397526820424       -6.99756762578161       -0.01119886920875
H           -0.97694419453348       -7.08396750487155       -0.04081134715668
H           -3.14908059363016       -5.92817705987857       -0.06198923879426
H           -5.32264045573909       -4.77506629467774       -0.08319355424602
H           -6.62302429353211       -2.69557081493911       -0.09015230157350
H           -6.70830409194171       -0.23648141594706       -0.08103560880070
H            3.14908078056111        5.92817703460518        0.06197458347634
H            0.97694404833813        7.08396734683384        0.04082685225694
H           -1.47397566489371        6.99756739959709        0.01123355879449
