36
 energy: -57.601966134730 gnorm: 0.000074924766 xtb: 6.6.1 (8d0f1dd)
C           -0.50915976105351       -1.32214918481251        0.00002275668061
C            0.89044886260069       -1.10202178792974        0.00002965227596
C           -1.39960013771240       -0.22011649108270        0.00000054044629
C            1.39961696831469        0.22013845688983        0.00001320831912
C           -0.89043183322593        1.10204361782406        0.00001702734527
C            0.50917651603447        1.32217124996757        0.00002186715158
C           -1.01611177508589       -2.63855403278606        0.00003977016238
C            1.77701292697063       -2.19925755430373        0.00005592909412
C           -2.79311653392157       -0.43928564670396       -0.00002953861802
C            2.79313311365829        0.43930820904156       -0.00000241491862
C           -1.77699625429647        2.19927972094174        0.00003152133488
C            1.01612840289621        2.63857639421419        0.00003639826793
C           -2.41750447419715       -2.82934940392774       -0.00000135064341
C            1.24155006523778       -3.50829678300132        0.00010524118920
C           -0.10467393100905       -3.72002816893693        0.00009682890306
C            3.27399810600834        1.76937304773063       -0.00000919511175
C           -1.24153353579728        3.50831876563066        0.00006854231273
C           -3.65904644980520        0.67895820539474       -0.00003411935375
C            2.41752120107242        2.82937181054419        0.00001765081983
C           -3.16929888914642        1.95068837861093        0.00000473120173
C           -3.27398151531611       -1.76935086584552       -0.00004251804850
C            0.10469089949098        3.72005018177832        0.00007023332819
C            3.16931581337231       -1.95066613510764        0.00003311517309
C            3.65906288314020       -0.67893625698609       -0.00000317180845
H           -2.79922267150937       -3.84082306784028       -0.00000608635634
H            1.92665322537228       -4.34461068489359        0.00015434405099
H           -0.49998438308574       -4.72626730405836        0.00013695288542
H            2.79923890734730        3.84084548652361        0.00002721205303
H           -1.92663613824737        4.34463311912222        0.00009521847991
H           -4.34306517885734       -1.93012196607661       -0.00008010688711
H           -3.84307295853274        2.79615627731524        0.00000946679110
H            4.34308181655119        1.93014489621964       -0.00002613478548
H            3.84308918147514       -2.79613457513571        0.00003570125286
H           -4.72586717642880        0.50379942674919       -0.00005623858161
H            0.50000093208944        4.72628940179379        0.00010212310003
H            4.72588377559597       -0.50377673686359       -0.00003515750629
