73
 energy: -129.265302685940 gnorm: 0.000297093910 xtb: 6.6.1 (8d0f1dd)
C           -5.74202718206062        2.23977472455290       -0.05395654620362
C           -5.09880253049238        3.43966770897840       -0.05111349914149
C           -3.67902369830648        3.52820105368456       -0.03791048086268
C           -3.01072825759165        4.75140431727618       -0.03283713779611
C           -1.61959998368705        4.82694657496915       -0.01481203170524
C           -0.85644910619054        3.63032265187994       -0.00328810155146
C            0.55747701949991        3.68538614842322        0.01720013487940
C            1.31108522694591        2.49225450372707        0.02679438483146
C            2.72097117477996        2.54585117513222        0.04804291604283
C            3.37730171751623        3.80471564746744        0.06147484132055
C            4.80343481269675        3.82262797218219        0.08446512854636
C            5.52573472904795        2.67677695187782        0.09170723127403
C            4.89446612484422        1.39763885746073        0.07661875587408
C            5.61957009772516        0.20790958101349        0.08153389482324
C            4.98907506456972       -1.03454470954901        0.06457355932777
C            3.57094411202717       -1.09543358726397        0.04335805681432
C            2.91135029794964       -2.34790948536341        0.02481426472145
C            3.66362087789752       -3.55182039674343        0.02461824331046
C            5.08684315405873       -3.45915799973286        0.04694699827907
C            5.71787883369209       -2.26072989087323        0.06673531912684
C            2.99616944428168       -4.77475172459316        0.00316990087732
C            1.60508888204610       -4.84991307664952       -0.01485274282924
C            0.90785121507317       -6.09425709235404       -0.03556545508026
C           -0.44551702863087       -6.14702130761182       -0.04834244282504
C           -1.23781957871584       -4.96071174500992       -0.04317332983388
C           -0.57145858232315       -3.70722636619662       -0.02681657434362
C            0.84298865459121       -3.65214249186810       -0.01190829498403
C            1.50133519606904       -2.40405629746394        0.00609681537291
C            0.74459601125562       -1.20408016959515        0.00504396790917
C           -0.66488289646225       -1.25882369525091       -0.01155685982744
C           -1.32531706750153       -2.51424891878525       -0.02536198891591
C           -2.73535742054684       -2.56799174797350       -0.03816712494198
C           -3.39161597068019       -3.82678781541099       -0.05046121615586
C           -2.63049822029697       -4.99414557734181       -0.05358168284248
C           -4.81774552939420       -3.84582644854684       -0.06037478434340
C           -5.54056430630120       -2.70001960717151       -0.06038701067594
C           -4.90872894247870       -1.42182367895142       -0.05125653844097
C           -3.49081044294438       -1.37041041723750       -0.03926049830328
C           -2.83532122186336       -0.12041197172266       -0.02969240677350
C           -1.41747847746823       -0.06550297831888       -0.01488713690752
C           -0.75948567851198        1.18214687879709       -0.00397894226652
C           -1.51552131028003        2.38236175392863       -0.01190495434396
C           -2.92428437293902        2.32623682475674       -0.02832643450034
C           -3.58567933572414        1.07524328111648       -0.03510685368390
C           -5.00192045594444        1.00625097186624       -0.04787158219529
C           -5.63527761583100       -0.23257631709578       -0.05445775743214
C            0.64995866005744        1.23710749862200        0.01439435246794
C            1.40209086501230        0.04389562591568        0.01993316446494
C            2.81947786715418        0.09905129159257        0.03979838678379
C            3.47582724419614        1.34827292569128        0.05515973701175
C            2.61665524866396        4.97198955388116        0.05103793476489
C            1.22386067387623        4.93880065071901        0.02814991028542
C            0.43117850307254        6.12452555080954        0.01487527139494
C           -0.92226397971196        6.07128228262529       -0.00620276868979
H           -5.66414097839833        4.36122805813802       -0.05764381356738
H           -3.58555827106073        5.66676887612249       -0.04206209402876
H            5.29777857442920        4.78329915750904        0.09571196500919
H            6.60555629078437        2.70846939792013        0.10883370968908
H            6.69964212183894        0.24985225115077        0.09820298276490
H            5.65430346211118       -4.37854878252158        0.04809836777765
H            6.79689910904564       -2.20862952343426        0.08436493974443
H            3.57281511690014       -5.68910826111476        0.00108624778637
H            1.49285078869650       -7.00258750060348       -0.04022118293810
H           -0.95785358573432       -7.09810139578559       -0.06324485847135
H           -3.13404917885506       -5.95058819225533       -0.06481318423173
H           -5.31150417113611       -4.80671968755655       -0.06765221994029
H           -6.62034268004088       -2.73057481517553       -0.06758785436123
H           -6.71450481204070       -0.26547445166305       -0.06327961271772
H            3.12031443399385        5.92849924910726        0.06068595212052
H            0.94304803974718        7.07602966500015        0.02202119254309
H           -1.50677377359969        6.97993367379397       -0.01662731156827
O           -7.09468942067681        2.13054752643284       -0.06350661354467
H           -7.50926537322293        3.00652723602923       -0.06182118156142
