86
 energy: -175.521078590754 gnorm: 0.000580236894 xtb: 6.6.1 (8d0f1dd)
O            2.50639667208511        0.88816029007454        3.97845211083407
C            1.58788527149092        1.26582436736094        4.80628541861265
O            1.68750157147350        1.52707718639818        5.96843711555855
C            0.19728591195491        1.32589607652291        4.08369079395900
F            0.27471343216915        2.02185197184314        2.93203805033867
F           -0.70007435583170        1.96536866343408        4.86541084253079
C           -0.32787577755849       -0.10286243389199        3.77457037324564
F           -0.08042746554390       -0.91596016886338        4.82540399285929
F            0.33998251505596       -0.61480843595400        2.73113290296953
C           -1.85676010463262       -0.14320395082410        3.48832977055568
F           -2.54026523638068       -0.13188570210474        4.63089211906561
F           -2.18208088408908       -1.25177800883370        2.83322487900498
F           -2.25401149393024        0.89644234394758        2.76686601878354
H            3.40551383865102        0.82030539402154        4.37790238472934
C           -5.71142309534901        2.17337039087693        0.04057854083808
C           -5.07249528066987        3.36648657050920        0.09240941868042
C           -3.64861100841686        3.45030865851547        0.08529596526232
C           -2.97325017997472        4.66732107755858        0.14647796651379
C           -1.58163754086089        4.73361050890877        0.14252608685498
C           -0.82748252115118        3.53309526949783        0.07273351968385
C            0.58692918214549        3.57932722227061        0.06831751443357
C            1.33281055363129        2.38384753466787        0.00047129988031
C            2.74295106125047        2.42879028143687       -0.00439946247925
C            3.40756494269566        3.68199488283082        0.05419199698739
C            4.83411050916764        3.69209745855775        0.03785733912041
C            5.54931522005388        2.54362397262321       -0.02898627031107
C            4.90963000011190        1.26957300883231       -0.08299375950461
C            5.62751385511847        0.07676105068540       -0.14325807813753
C            4.98889165212905       -1.16088533970584       -0.18933189163088
C            3.57007441034919       -1.21320266331464       -0.17914336572804
C            2.90266932463130       -2.46063207628042       -0.22623690403470
C            3.64738183308949       -3.66814801243722       -0.28049810424173
C            5.07146392323349       -3.58408422525316       -0.29019959183742
C            5.71020009163943       -2.39032074753956       -0.24759013493717
C            2.97207093510251       -4.88618991436676       -0.32295788612444
C            1.58034860915371       -4.95280965043532       -0.31309412514409
C            0.87513063701032       -6.19212422035632       -0.35360326365225
C           -0.47861455886963       -6.23667101316762       -0.34173381260753
C           -1.26308264479045       -5.04632878318636       -0.28938487555200
C           -0.58873895213008       -3.79768068658435       -0.25125913063650
C            0.82598544590840       -3.75111317985965       -0.26169468408987
C            1.49236912182997       -2.50798034298344       -0.21995655032375
C            0.74379881955815       -1.30446525583149       -0.17183260622530
C           -0.66574525290000       -1.35095752699045       -0.16615684245750
C           -1.33486284020840       -2.60094016633363       -0.20334633717278
C           -2.74493794295163       -2.64621493373459       -0.19024360531949
C           -3.40918411113958       -3.90018014178211       -0.22543957609539
C           -2.65603811532352       -5.07130199483643       -0.27516083795922
C           -4.83542563785788       -3.91014489825788       -0.20918153804197
C           -5.55053493246482       -2.76091326484288       -0.16008150682058
C           -4.91106316439163       -1.48640751980129       -0.12256234587074
C           -3.49227514922287       -1.44523735352547       -0.14090937017471
C           -2.82840420156660       -0.20058054350344       -0.10373786689271
C           -1.41033132357520       -0.15392953398715       -0.11451353418179
C           -0.74520578325533        1.08894733894245       -0.05976687424752
C           -1.49413102332674        2.29154888647110        0.00747134632769
C           -2.90412185481824        2.24399749240863        0.01441618003968
C           -3.57190145583766        0.99725453571050       -0.04164098550436
C           -4.99028721880672        0.94437171389983       -0.02434944982923
C           -5.62862461651194       -0.29339149510549       -0.06691644580017
C            0.66439702761765        1.13460810149975       -0.06213543199810
C            1.40863440662177       -0.06177425940459       -0.12067721828443
C            2.82605967442837       -0.01545725771206       -0.12263639220170
C            3.49035707143318        1.22836824448327       -0.06985712885838
C            2.65439681634017        4.85218180393945        0.12207148248855
C            1.26132788445709        4.82685187485397        0.13156980241750
C            0.47719589290902        6.01647855326790        0.20014757153952
C           -0.87652324802476        5.97205146747823        0.20562209109507
H           -6.79077043312711        2.12726098438024        0.04924962770182
H           -5.63398382271134        4.28806492656206        0.14297262551906
H           -3.54407725888389        5.58372031776397        0.20032627239760
H            5.33379532386641        4.64901059689759        0.07822788897962
H            6.62910604206628        2.56970227971993       -0.04317551120184
H            6.70762402035335        0.11232960938308       -0.15493412955438
H            5.63256432691768       -4.50617244396086       -0.33394779114141
H            6.78943277509087       -2.34497903775835       -0.25715639169551
H            3.54219458889180       -5.80355724329949       -0.36457863016149
H            1.45381277658988       -7.10347636421257       -0.39424335136058
H           -0.99740926812819       -7.18377669661492       -0.37242831289312
H           -3.16599859502384       -6.02396076050806       -0.30342564079501
H           -5.33588326820998       -4.86716824188863       -0.23682554702568
H           -6.63053207461722       -2.78582181722833       -0.14746596424359
H           -6.70892961447428       -0.32905578435141       -0.05284536477401
H            3.16329929968834        5.80478136890461        0.16698635628882
H            0.99526955497896        6.96333151301349        0.24784375201162
H           -1.45594451543937        6.88238430046527        0.25824100166408
