86
 energy: -175.520786077639 gnorm: 0.000332213031 xtb: 6.6.1 (8d0f1dd)
O            2.49962999355228       -0.26102727601397        3.95659484959954
C            1.72284399568191        0.35010861944171        4.78995194601838
O            1.89530051946664        0.57151129544417        5.95172822062021
C            0.39729781108083        0.78794162941258        4.07580794940855
F            0.65257124013427        1.39066097388013        2.89793382791668
F           -0.26241740895127        1.68669214973967        4.83931076749517
C           -0.52636258398109       -0.43579773205924        3.82700676970464
F           -0.53230910710726       -1.23009714968854        4.92024934195730
F           -0.03749093943097       -1.17524841963518        2.82105956485319
C           -1.99900823093167       -0.03875302248349        3.51841622029897
F           -2.64937689699086        0.23342017626054        4.64751777966326
F           -2.63529879480970       -1.03640457061192        2.91510622996349
F           -2.07347355724253        1.03176124912771        2.73863571576275
H            3.35054349141677       -0.56758640360306        4.34982095840869
C           -5.71609870297415        2.24546308611591       -0.01361526127684
C           -5.08182848398672        3.44224056392769       -0.01404797160780
C           -3.65843630084788        3.53131043498170       -0.03860312076475
C           -2.98784207010153        4.75253143797368       -0.03366235274705
C           -1.59659571426707        4.82407063727803       -0.05032726980877
C           -0.83797320040153        3.62444034109962       -0.07361591337594
C            0.57643575724226        3.67588571661552       -0.08341382152782
C            1.32668654847857        2.48132662735586       -0.10229909221974
C            2.73669345502307        2.53151489046975       -0.10770186085759
C            3.39657913248590        3.78850203750494       -0.09947925148023
C            4.82305193416522        3.80333166525549       -0.11179243965119
C            5.54256929767722        2.65581095257317       -0.13071590974215
C            4.90764776330888        1.37834415488972       -0.13758297505299
C            5.63010587245198        0.18694314959808       -0.15894105162953
C            4.99622319075883       -1.05393694665382       -0.16440869876099
C            3.57751474754649       -1.11120249152881       -0.14828609279752
C            2.91481245969776       -2.36210324812637       -0.14753141463983
C            3.66420405849472       -3.56792570813768       -0.16024876571146
C            5.08794037819957       -3.47889527679595       -0.18008642350413
C            5.72217519948616       -2.28195215863076       -0.18286413569850
C            2.99363230707006       -4.78927641285711       -0.15428793865425
C            1.60220071079619       -4.86066092691316       -0.13691552919324
C            0.90188099349911       -6.10338120002319       -0.12821511320764
C           -0.45162758157428       -6.15265984313543       -0.11090561824709
C           -1.24058863158529       -4.96415616094902       -0.10184487691885
C           -0.57111165953172       -3.71242824013001       -0.11360965556937
C            0.84327798219935       -3.66080223857744       -0.12879900725321
C            1.50479429778221       -2.41454918786685       -0.13502544008329
C            0.75170296229191       -1.21290070630803       -0.13091330239665
C           -0.65774089760786       -1.26453111932797       -0.12332479656265
C           -1.32185482723105       -2.51765890084953       -0.11036084719705
C           -2.73172008575353       -2.56778785615635       -0.08971935626590
C           -3.39105252733709       -3.82472896061113       -0.07299600392430
C           -2.63342183248872       -4.99395169757694       -0.08154840595836
C           -4.81706372201935       -3.83955008627840       -0.04746946471275
C           -5.53646564555686       -2.69206627100223       -0.03611573994641
C           -4.90198414787685       -1.41469363233125       -0.05050632221134
C           -3.48369223173354       -1.36873931486750       -0.08151843868791
C           -2.82452457829046       -0.12107955913923       -0.09419726996467
C           -1.40674662330521       -0.06935553405849       -0.11423462336119
C           -0.74633783555733        1.17724288568329       -0.10908217284515
C           -1.49973506391856        2.37853807881367       -0.08545639125239
C           -2.90944093703641        2.32594686310822       -0.06712047169786
C           -3.57242233275626        1.07536083234637       -0.07014990649452
C           -4.99045357456126        1.01764880563059       -0.03944629313729
C           -5.62397538230966       -0.22329916461247       -0.03194780690808
C            0.66281770704524        1.22823336005711       -0.11564411072871
C            1.41162092484606        0.03331577305582       -0.12676403054331
C            2.82902088247445        0.08492656951677       -0.13185481669604
C            3.48862357041333        1.33233748522952       -0.12450848012486
C            2.63903890531358        4.95774801356379       -0.08239350920158
C            1.24610729643984        4.92767487128712       -0.07302338527126
C            0.45736642104193        6.11611241122875       -0.05450162047878
C           -0.89616295747359        6.06677557746822       -0.04343208759826
H           -6.79508949758659        2.19549655311231        0.00777381777264
H           -5.64670410651842        4.36288816876174        0.00675581641204
H           -3.56207198475319        5.66813715569866       -0.01373074387679
H            5.31915687107135        4.76301083190613       -0.10744225924816
H            6.62236412458472        2.68550299456820       -0.14247651940789
H            6.71006242633686        0.22689490123478       -0.17306876140838
H            5.65258142994661       -4.39969093313396       -0.19415268115575
H            6.80112193309466       -2.23248077114250       -0.19958248023003
H            3.56715448133725       -5.70535695796563       -0.16383193032648
H            1.48394210017776       -7.01342531749881       -0.13563495210073
H           -0.96690634164142       -7.10214556168845       -0.10386555741343
H           -3.13974348409960       -5.94890042292037       -0.07111036255426
H           -5.31373755677828       -4.79885597922316       -0.03562591514077
H           -6.61620726259716       -2.72062492739015       -0.01458093073513
H           -6.70396236074563       -0.26243583822163       -0.00749843565707
H            3.14460808160734        5.91318009740728       -0.07630531252078
H            0.97207642695354        7.06596837522582       -0.04889917655774
H           -1.47892302042892        6.97634773287439       -0.02847410137397
