87
 energy: -179.601366893086 gnorm: 0.000676946969 xtb: 6.6.1 (8d0f1dd)
O            2.49442470460138       -0.26796595536280        3.96318139613006
C            1.71616734674151        0.34487361388814        4.79408536839540
O            1.88609442282562        0.56766226160539        5.95596815048749
C            0.39313112930860        0.78308945763372        4.07563535402037
F            0.65173166057357        1.38505821355059        2.89837643653796
F           -0.26911783762273        1.68199174976803        4.83694430175004
C           -0.52928929512254       -0.44153524494988        3.82531498551719
F           -0.53522227152678       -1.23606367671201        4.91880079454805
F           -0.03869145186333       -1.18018136727578        2.82011681449286
C           -2.00245921091207       -0.04650555225178        3.51654738705052
F           -2.65365587248491        0.22206089282684        4.64640658421799
F           -2.63642119722005       -1.04443814145776        2.91123018254699
F           -2.07909906951934        1.02590425958757        2.73963433700941
H            3.34436481445873       -0.57462996941983        4.35868754110079
C           -5.73998728574415        2.21681785234569       -0.02326279910719
C           -5.09786654294324        3.41716864116813       -0.02389839898763
C           -3.67822374673057        3.50715197882719       -0.04354972909604
C           -3.01154435732077        4.73101287724710       -0.03909617108964
C           -1.62054329856902        4.80778822057053       -0.05462544090752
C           -0.85643997536723        3.61205037874005       -0.07592306856325
C            0.55730470292668        3.66851181804434       -0.08574949607653
C            1.31173413126530        2.47655004085996       -0.10279088173191
C            2.72140752797825        2.53177931867610       -0.10841851716700
C            3.37695047547573        3.79118124814153       -0.10180779206720
C            4.80332880530260        3.81088038207410       -0.11354084001548
C            5.52687610033747        2.66589582269981       -0.13163759330290
C            4.89639517922862        1.38621891998248       -0.13814195283442
C            5.62296030990084        0.19737683587868       -0.15997222183246
C            4.99335500686333       -1.04571077443155       -0.16491008002030
C            3.57490314638308       -1.10792917970831       -0.14758022295487
C            2.91649147428295       -2.36110217024887       -0.14666237855671
C            3.67017669432145       -3.56421805885522       -0.15995124803189
C            5.09352316735762       -3.47027563089879       -0.18088505432982
C            5.72358019402593       -2.27111040542740       -0.18422892545115
C            3.00401402822696       -4.78802378708524       -0.15371855692344
C            1.61295556815465       -4.86433553817675       -0.13606030014014
C            0.91712685780751       -6.10961181497080       -0.12715983201855
C           -0.43611963259562       -6.16375679839679       -0.10982680789482
C           -1.22938404200459       -4.97803008019240       -0.10071833272691
C           -0.56441864542663       -3.72383571880138       -0.11238626401119
C            0.84972753840471       -3.66717988806722       -0.12776272830038
C            1.50661678544329       -2.41849357678158       -0.13370215041601
C            0.74910826391216       -1.21953247708684       -0.12904890935501
C           -0.66019309569273       -1.27605066285882       -0.12123691600893
C           -1.31944594410642       -2.53178586917407       -0.10858145887413
C           -2.72903467659919       -2.58707278766998       -0.08779381905684
C           -3.38391005215636       -3.84634445391271       -0.07120512505939
C           -2.62187653158145       -5.01295671612444       -0.08011052827515
C           -4.80966024813658       -3.86712734287357       -0.04546437834282
C           -5.53352724777895       -2.72222093260475       -0.03448742134945
C           -4.90301768425798       -1.44357374022428       -0.04965207195083
C           -3.48569959670306       -1.39063799420768       -0.07976381471098
C           -2.83172651824721       -0.13991684561011       -0.09261555020323
C           -1.41373342148606       -0.08346334068531       -0.11212072243473
C           -0.75688483443698        1.16500308961168       -0.10778695916572
C           -1.51413005782294        2.36384149723854       -0.08593997453714
C           -2.92244626080014        2.30635894498467       -0.06891390231900
C           -3.58281645776405        1.05500562661996       -0.07074997073686
C           -4.99869442508826        0.98431959697930       -0.04299348455693
C           -5.63059177459526       -0.25524831349176       -0.03371888047563
C            0.65207284356048        1.22110559225668       -0.11447868242813
C            1.40500091534889        0.02888599652143       -0.12500983426527
C            2.82220101737394        0.08552693403599       -0.13071975425336
C            3.47751573872577        1.33523491941826       -0.12431466872096
C            2.61531272785872        4.95772079931610       -0.08688434224262
C            1.22244486382170        4.92271181104854       -0.07764773810240
C            0.42878336286232        6.10771816340683       -0.06112104053289
C           -0.92467604772244        6.05297924734999       -0.04958978576636
H           -5.66403450887161        4.33805749445146       -0.00759919143895
H           -3.58745342140020        5.64549213624904       -0.02091444113716
H            5.29613420143117        4.77232208504684       -0.10941559493336
H            6.60659655735461        2.69928553899947       -0.14302180095472
H            6.70280057089363        0.24105742423899       -0.17511420170049
H            5.66136399680684       -4.38911198908458       -0.19552132867163
H            6.80235785057034       -2.21780915007562       -0.20214639284262
H            3.58088524833508       -5.70201316987381       -0.16334757791155
H            1.50254099563634       -7.01749490981255       -0.13439907085549
H           -0.94808084935662       -7.11499910386828       -0.10263351374028
H           -3.12478959232246       -5.96964261046184       -0.06971611167477
H           -5.30236952200518       -4.82840369110260       -0.03333112954705
H           -6.61302101787536       -2.75333460239343       -0.01298929899994
H           -6.70958968958102       -0.28901937467742       -0.01087850575974
H            3.11758862485106        5.91499284303654       -0.08247017076607
H            0.93956522268017        7.05977707204763       -0.05742169002069
H           -1.51046567739157        6.96067852438435       -0.03593932128068
O           -7.09243021779173        2.10634589283789       -0.00407123239463
H           -7.50765446116959        2.98238631851663       -0.00007311828506
