87
 energy: -179.601666944688 gnorm: 0.000413566964 xtb: 6.6.1 (8d0f1dd)
O            2.48769565871261        0.88720670860252        3.97965245702734
C            1.56942450103124        1.27344490280985        4.80362201187830
O            1.67033161948808        1.54979236760908        5.96198666859015
C            0.17818331388049        1.32245239691851        4.08188139338033
F            0.25031745340030        2.01728623754154        2.92946720582868
F           -0.72307257202841        1.95733302752105        4.86345074380733
C           -0.33833324400886       -0.11005756849551        3.77584287658954
F           -0.08774543307480       -0.91814659149144        4.82978329076566
F            0.33356909405510       -0.62149435024981        2.73493566728399
C           -1.86675268351970       -0.16012705576122        3.48732105515985
F           -2.55213281034405       -0.15245748516589        4.62866073161877
F           -2.18370046046315       -1.27118675129882        2.83241397128057
F           -2.26973301766778        0.87688303024131        2.76514891405912
H            3.38757971687304        0.82683619171628        4.37857312903153
C           -5.73238149101894        2.14842498245065        0.02968170647480
C           -5.08503176241225        3.34476180971689        0.08194060782034
C           -3.66494203519690        3.42874938026748        0.07766359863244
C           -2.99291482627976        4.64813251362567        0.13865090828313
C           -1.60151602943496        4.71894438593570        0.13633825295980
C           -0.84242963580865        3.52187677753550        0.06813179150994
C            0.57134795034275        3.57240643404977        0.06498117163348
C            1.32084812339132        2.37912613405909       -0.00215718905427
C            2.73071952734449        2.42843005908347       -0.00671461863038
C            3.39159673193137        3.68368319962159        0.05273057829662
C            4.81807848081549        3.69795019411070        0.03674897097120
C            5.53676471117484        2.55176794903607       -0.03157696226071
C            4.90090340912776        1.27581450338571       -0.08656140872242
C            5.62232196726959        0.08527859161486       -0.14805394976978
C            4.98739341120080       -1.15433325075015       -0.19332072102274
C            3.56880919787117       -1.21100983779648       -0.18149310549092
C            2.90508442130988       -2.46047893034323       -0.22664290225560
C            3.65352720756746       -3.66569925303537       -0.28003352080573
C            5.07727822270347       -3.57729255319406       -0.29197579456670
C            5.71240850010631       -2.38152745193321       -0.25171386881924
C            2.98206396190431       -4.88599053659973       -0.31947967192328
C            1.59067924902854       -4.95690908648170       -0.30820222327961
C            0.88936882666243       -6.19857652070116       -0.34568673338572
C           -0.46414804400483       -6.24732959098426       -0.33410964134316
C           -1.25239826493121       -5.05925701214264       -0.28476924082652
C           -0.58196721822471       -3.80839388584670       -0.24828150768780
C            0.83255619976214       -3.75747325293852       -0.25871888476307
C            1.49489477177466       -2.51213713358990       -0.21913725683509
C            0.74243890782148       -1.31089184633652       -0.17211543827237
C           -0.66700070370607       -1.36159966635542       -0.16642009360050
C           -1.33184636980313       -2.61394115996919       -0.20239067066414
C           -2.74169733694691       -2.66368000571941       -0.19016761358944
C           -3.40208431543503       -3.91970819993343       -0.22439006410890
C           -2.64506503309588       -5.08866259061899       -0.27184111511695
C           -4.82814161117949       -3.93491271061411       -0.20937024273350
C           -5.54719047427038       -2.78783786023374       -0.16239170415560
C           -4.91106599204460       -1.51227749045400       -0.12613981153981
C           -3.49317785893943       -1.46486167266153       -0.14291801011526
C           -2.83390162020497       -0.21741787310831       -0.10649865471265
C           -1.41556952518514       -0.16672121517512       -0.11631105887926
C           -0.75343750671176        1.07775182692887       -0.06245886315724
C           -1.50561126771837        2.27830468367459        0.00327402355772
C           -2.91424365798532        2.22656479205807        0.00875883141959
C           -3.58000621067263        0.97935172960285       -0.04663601593377
C           -4.99628741348270        0.91423725831792       -0.03205766754340
C           -5.63364136159676       -0.32187806043791       -0.07333064743412
C            0.65603535258782        1.12784292895183       -0.06443338213999
C            1.40383241942184       -0.06624106293355       -0.12225188497668
C            2.82112971818650       -0.01554057312759       -0.12499989550814
C            3.48173970130441        1.23029484583595       -0.07268492815676
C            2.63489000232316        4.85151578853441        0.12070439996022
C            1.24185939507212        4.82198574079410        0.12871048949406
C            0.45335584088195        6.00864614597875        0.19594397499342
C           -0.90033815464261        5.95956167514655        0.19956224597481
H           -5.64725535417593        4.26689400984372        0.13108635008266
H           -3.56499241794078        5.56373750897549        0.19113255828682
H            5.31495435046891        4.65632231813513        0.07841296041468
H            6.61649617177526        2.58105060124371       -0.04592341081109
H            6.70232918229638        0.12408858521431       -0.16095302789451
H            5.64112144297087       -4.49773672636539       -0.33550273673978
H            6.79149971219412       -2.33282531106186       -0.26302811580293
H            3.55508701086123       -5.80160957878462       -0.35997525962613
H            1.47103155620413       -7.10814257689449       -0.38386074523404
H           -0.98008389176152       -7.19604707750735       -0.36268280359033
H           -3.15207618240822       -6.04287109992890       -0.29938694454624
H           -5.32510662400637       -4.89372816054072       -0.23620226588295
H           -6.62699639231319       -2.81474249514766       -0.15054889876941
H           -6.71295123454952       -0.35158301328921       -0.06067409864855
H            3.14096398905352        5.80564230513397        0.16657422212531
H            0.96798359336010        6.95745563175086        0.24393046952885
H           -1.48235567572862        6.86840107110390        0.25085513802047
O           -7.08540607948126        2.04362706527099        0.03317560997750
H           -7.49658757245316        2.92046676146381        0.07526971728092
