86
 energy: -175.520338915837 gnorm: 0.000437231788 xtb: 6.6.1 (8d0f1dd)
O            1.59308046946889        2.33811480294309        4.98106479566702
C            1.59365282805646        1.43026765313093        4.06388434709945
O            2.05141740400883        1.47579145509044        2.96032119231111
C            0.89071972458232        0.12732179334651        4.60099909600534
F           -0.14316338167096        0.43153983705527        5.41485948810833
F            1.77091006481435       -0.57778688517194        5.35106160668117
C            0.38840196428402       -0.76596852206897        3.43977996924876
F            1.44229571691522       -1.28203409807612        2.78587602338419
F           -0.31230884015994       -0.01020278151091        2.57306012545948
C           -0.53206685079771       -1.93456262010938        3.89022962052282
F           -0.02362443870616       -2.59449531706966        4.92754268230335
F           -0.70036647220763       -2.80352464346879        2.90037233826573
F           -1.73197348441805       -1.48134746959957        4.24285059949809
H            2.02813260493976        3.18741515170846        4.73274891857463
C           -5.81477905403129        2.31704451681921       -0.39618848856560
C           -5.17607013549712        3.51133084330142       -0.37675828796411
C           -3.75328917389907        3.59462110992064       -0.31684507626129
C           -3.07853441942135        4.81321121477387       -0.28485399638774
C           -1.68832415483002        4.87906786224548       -0.21874398464723
C           -0.93471588636359        3.67605618418266       -0.18957915001029
C            0.47847523992662        3.72144875047193       -0.11781131347227
C            1.22400086642317        2.52345705964818       -0.09087908961985
C            2.63161546148570        2.56784872839940       -0.00866193838557
C            3.29431713259495        3.82233732977708        0.04200931848085
C            4.71813654641806        3.83186713346157        0.12993632361898
C            5.43148374065933        2.68119452351897        0.17046541182660
C            4.79259484095310        1.40645843161478        0.12634829110432
C            5.50894110780675        0.21241673111215        0.17292900325910
C            4.87132636148682       -1.02571448861550        0.13452232768209
C            3.45578254737055       -1.07730121113504        0.04076129182824
C            2.78919718746602       -2.32540837288452        0.01151684005591
C            3.53100835179207       -3.53378084319248        0.07798506476568
C            4.95261599296498       -3.45062402547847        0.16075322575851
C            5.59077932237405       -2.25626538717883        0.18742829602975
C            2.85545338749074       -4.75218709203275        0.06452911901053
C            1.46567384798734       -4.81835946623600       -0.00658737349687
C            0.75967961322001       -6.05769545537341       -0.00815373986827
C           -0.59271004209994       -6.10159420523201       -0.06744470266590
C           -1.37462114976862       -4.91042490941680       -0.13109139201071
C           -0.69911965494929       -3.66222617701102       -0.13851030975126
C            0.71410233764610       -3.61614845642940       -0.07664743181036
C            1.38159960893673       -2.37307264624237       -0.07368380932156
C            0.63535112598746       -1.16821932058809       -0.13625212442160
C           -0.77342112286767       -1.21408019193124       -0.19615328373660
C           -1.44302282120768       -2.46463807034920       -0.19583631576011
C           -2.85276083040538       -2.50860377130529       -0.23977612841333
C           -3.51805351678771       -3.76262216450945       -0.23568855365022
C           -2.76660822479102       -4.93453634148685       -0.18280434672115
C           -4.94367746103074       -3.77128039431825       -0.28432158791257
C           -5.65738332883287       -2.62095046002925       -0.32921155696388
C           -5.01715649774036       -1.34627843173194       -0.32823005640699
C           -3.59869323750137       -1.30628642799401       -0.28320202076870
C           -2.93373212984320       -0.06160477776020       -0.27644049017687
C           -1.51685030417989       -0.01575349902529       -0.23188700754728
C           -0.85163991171570        1.22761310452173       -0.20500137106348
C           -1.60020768079871        2.43220375161442       -0.22844870096541
C           -3.00945160452740        2.38567884232184       -0.28669083286259
C           -3.67691995117193        1.13763834815408       -0.30902998719186
C           -5.09474886777918        1.08613700306068       -0.35924918302149
C           -5.73362120396624       -0.15199910355328       -0.36863220676265
C            0.55650970928962        1.27323160294733       -0.13994435859534
C            1.30020934763462        0.07564617346000       -0.10594612207125
C            2.71446748036230        0.12162760416228       -0.01501571771162
C            3.37701762075797        1.36596666220206        0.03138513913531
C            2.54239358110076        4.99504479520890        0.00720707224958
C            1.15141056113110        4.97092988410014       -0.07135990584078
C            0.36790632712205        6.16265738375776       -0.10633285979244
C           -0.98405906561273        6.11899583645414       -0.17760681356192
H           -6.89325549413472        2.27150498886936       -0.43959422883931
H           -5.73690285060649        4.43423997217010       -0.40457671109291
H           -3.64878652262529        5.73112477979974       -0.30901189794655
H            5.21775505624254        4.78916049439166        0.16432461128830
H            6.50947806706736        2.70503496212307        0.23858996561133
H            6.58709554910837        0.24679950787615        0.24441264451093
H            5.51213373674235       -4.37377883197663        0.20425766088945
H            6.66826411326856       -2.21109155613431        0.25232620287707
H            3.42398512873029       -5.67013119539003        0.11636424622819
H            1.33714397753783       -6.96938329465489        0.04230679713418
H           -1.11211615820748       -7.04888417455283       -0.06532711939087
H           -3.27707929584115       -5.88735797804100       -0.17847560189464
H           -5.44426621128445       -4.72864477217467       -0.28386427402681
H           -6.73681314189387       -2.64551578593964       -0.36552551808055
H           -6.81332368110731       -0.18724050763817       -0.40561678756821
H            3.05102353127563        5.94817569647470        0.04218377288842
H            0.88549440175046        7.11036211828842       -0.07554349026532
H           -1.56266533189057        7.03086950013310       -0.20415718411433
