87
 energy: -179.600862561088 gnorm: 0.000783997359 xtb: 6.6.1 (8d0f1dd)
O            1.67588496322247        2.31478004464219        4.99468610336306
C            1.66019167164803        1.40948725167090        4.07576903204982
O            2.12093998986070        1.44816067008662        2.97324296586424
C            0.93208625000338        0.11888148391594        4.60904761069597
F           -0.08795077343525        0.44013755766106        5.43401833102511
F            1.80184495652247       -0.61188743760223        5.34682650927464
C            0.40150128221966       -0.75546855037034        3.44601991816643
F            1.43951071083099       -1.29313408138525        2.78398075700109
F           -0.28581920812918        0.02053525576349        2.58649727309427
C           -0.54339916589562       -1.90443325084144        3.89682241631995
F           -0.04158554904959       -2.58474232230266        4.92409196128592
F           -0.74324790681055       -2.76125983700845        2.90241771687481
F           -1.72819632872833       -1.42360119165630        4.26489856007490
H            2.12590431516670        3.15687102038953        4.74840377325212
C           -5.84649494777178        2.28079871982671       -0.37563748104376
C           -5.20090317235500        3.47924488277535       -0.35666779018729
C           -3.78182879830800        3.56469051201319       -0.30377780191493
C           -3.11185270430154        4.78652134915116       -0.27423885850241
C           -1.72176307866394        4.85883604362313       -0.21288241749556
C           -0.96153503473703        3.66036795440331       -0.18535087031335
C            0.45110606850705        3.71203312290993       -0.11640753713369
C            1.20190191462426        2.51726772334546       -0.09005580862694
C            2.60927635750241        2.56784473055612       -0.00923298823076
C            3.26656342134322        3.82533203945542        0.04066107595344
C            4.69032814418944        3.84090800964886        0.12850396486687
C            5.40866364467630        2.69341279650572        0.16944032542204
C            4.77533715178256        1.41585187933156        0.12546910346144
C            5.49674754580412        0.22500791030188        0.17252192311624
C            4.86442259839884       -1.01591609009202        0.13471426432512
C            3.44917947712285       -1.07363406931480        0.04104552995007
C            2.78787397503767       -2.32456846472146        0.01228559744528
C            3.53501405389397       -3.52964908288696        0.07851579526107
C            4.95612781972394       -3.44037439389406        0.16207822274949
C            5.58914181674542       -2.24324940459210        0.18860852777626
C            2.86494913774942       -4.75111960617407        0.06398047251689
C            1.47561583057744       -4.82340670342798       -0.00752304881201
C            0.77526614377207       -6.06600345727539       -0.01147128906936
C           -0.57680672688807       -6.11593281629766       -0.07130395389782
C           -1.36415908364204       -4.92811482326613       -0.13269869715829
C           -0.69435636475684       -3.67675593139298       -0.13725220631817
C            0.71861472652462       -3.62443950593239       -0.07565148625954
C            1.38039648334417       -2.37834753016659       -0.07199375474959
C            0.62860832274642       -1.17676906019087       -0.13315493658247
C           -0.78006615821528       -1.22869518672511       -0.19112192325164
C           -1.44368701856815       -2.48249309881738       -0.19231743341632
C           -2.85309287496044       -2.53290446184435       -0.23660720472505
C           -3.51271598454228       -3.78991740096255       -0.23600254262128
C           -2.75575741994113       -4.95861846439900       -0.18538626434322
C           -4.93806135352220       -3.80585154579802       -0.28592794201173
C           -5.65738634558534       -2.65867895077022       -0.32757353765872
C           -5.02238165992905       -1.38209047835396       -0.32203606089269
C           -3.60488349406219       -1.33380066565964       -0.27730142817185
C           -2.94626927712150       -0.08544120993021       -0.26870388317741
C           -1.52912031137265       -0.03358591181265       -0.22549766668736
C           -0.86852259642366        1.21222047772679       -0.20002674960323
C           -1.62201836204109        2.41368296009514       -0.22226268262224
C           -3.02998774991395        2.36101672866195       -0.27675849282114
C           -3.69377038747893        1.11163149493848       -0.29858544155657
C           -5.10949938525709        1.04585924948338       -0.34522060651691
C           -5.74560599841775       -0.19145150181024       -0.35751908708974
C            0.53956712261589        1.26413272626390       -0.13764993648619
C            1.28848300209013        0.06985840511035       -0.10421366951145
C            2.70265751108052        0.12205008827315       -0.01488897226144
C            3.35992573261744        1.36921802477606        0.03069294658983
C            2.50953805530886        4.99465000638513        0.00584525411205
C            1.11853032019081        4.96443577225358       -0.07132605372301
C            0.32904205100694        6.15206046985957       -0.10546570432597
C           -1.02297014990528        6.10184802812145       -0.17390617596533
H           -5.76393472023488        4.40188811026684       -0.37871336132909
H           -3.68463754539844        5.70282199545864       -0.29623732330895
H            5.18584257280509        4.80039412146946        0.16280991324455
H            6.48654487316451        2.72196709393531        0.23793592099465
H            6.57476997588876        0.26399650203592        0.24402990335237
H            5.51957522395623       -4.36110854813845        0.20646763811812
H            6.66639705469244       -2.19340165807816        0.25420437474986
H            3.43762251137428       -5.66653764157595        0.11504798575296
H            1.35695375242261       -6.97510348981428        0.03727169188993
H           -1.09197318484379       -7.06552506015200       -0.07138505389263
H           -3.26190444554282       -5.91370866730198       -0.18369900642351
H           -5.43374962560715       -4.76569899047307       -0.28911443159463
H           -6.73654670239832       -2.68674791011382       -0.36491243959879
H           -6.82431773589151       -0.22227305965752       -0.39313966642765
H            3.01405491017253        5.95005262694077        0.04005891046370
H            0.84191560431020        7.10243375113344       -0.07595463828292
H           -1.60543738109901        7.01136807703107       -0.19943171844429
O           -7.19841615384220        2.17480996899185       -0.42041566236573
H           -7.61047797318869        3.05206480112722       -0.43463416043828
