88
 energy: -184.773052750978 gnorm: 0.000856529783 xtb: 6.6.1 (8d0f1dd)
O           -2.85429890443978       -0.61088870584531        4.98436832143851
S           -2.07843788208442        0.28260104528824        3.99906232086253
O           -2.53569230065631        0.12245437162429        2.66152214371371
O           -1.95241326766690        1.58676314701132        4.55353328449126
C           -0.37314940758457       -0.51194833623170        4.09156310535825
F           -0.34665620617579       -1.49348873382072        3.17822719896304
F           -0.19977165102048       -1.07856087564161        5.29448824839830
C            0.69180112040310        0.55357856714045        3.82877763220726
F            0.75494288292599        1.38214718716050        4.88797120018377
F            0.30409571086125        1.28830395555429        2.77137734077559
C            2.13491240262368        0.01227796245085        3.58516609762237
F            2.92769348904476        0.97141969047039        3.12592443241821
F            2.15932755399159       -0.99398966488544        2.72422764599037
F            2.64619353922155       -0.42853048178182        4.73323693222412
H           -3.42643298573130       -1.31615698999655        4.63014745760186
C           -5.71616065119398        2.22972883617782       -0.12049379038580
C           -5.07622060585705        3.43102782506240       -0.09638244916414
C           -3.65660772443035        3.52203823643285       -0.08223913971471
C           -2.99202292458539        4.74662587757982       -0.04751487006076
C           -1.60122009465834        4.82511705277737       -0.02774945895299
C           -0.83545328863574        3.63029626694923       -0.04793703850847
C            0.57796387018168        3.68893130407158       -0.02295686108354
C            1.33465318802566        2.49823637634441       -0.04075042287629
C            2.74388129229251        2.55491518635485       -0.00102946817309
C            3.39696889627795        3.81440680478101        0.04996050727048
C            4.82252013473157        3.83542900679029        0.09223215431128
C            5.54763278860735        2.69156618660075        0.08957304953528
C            4.91972312568815        1.41175894752633        0.04362245981436
C            5.64736106869412        0.22380384795626        0.04893101118133
C            5.02003231708818       -1.01980867261737        0.01348510770833
C            3.60271214466372       -1.08374294267007       -0.03222747356525
C            2.94563637111606       -2.33726321396938       -0.05042289614600
C            3.70037309751380       -3.53935444892917       -0.03193259420200
C            5.12314167604498       -3.44402094061899        0.00341699389922
C            5.75153902975234       -2.24438298164623        0.02656127894436
C            3.03589839314242       -4.76390630404106       -0.04551880290234
C            1.64520963183572       -4.84186405102688       -0.07027612621703
C            0.95092341823938       -6.08809387887874       -0.08087344498893
C           -0.40218797708240       -6.14379595312611       -0.09982382934251
C           -1.19663102373726       -4.95885983074041       -0.11117121845035
C           -0.53316673710812       -3.70347645503728       -0.10421432261637
C            0.88090282920276       -3.64551915172895       -0.08418681953038
C            1.53623397045754       -2.39618620013692       -0.07816461216781
C            0.77680418466973       -1.19827428746856       -0.09586735634385
C           -0.63222744280794       -1.25529816828672       -0.11665960058953
C           -1.28924172606951       -2.51220916804644       -0.11956808094178
C           -2.69881562358029       -2.56885753705448       -0.13765465971109
C           -3.35236617690075       -3.82954724004507       -0.14230097758449
C           -2.58908732923850       -4.99558211908511       -0.13002431695254
C           -4.77856631233934       -3.85242957774118       -0.16111308287822
C           -5.50355850737557       -2.70793421344131       -0.16701603553908
C           -4.87414174792873       -1.42812332525583       -0.15728799452075
C           -3.45631252537211       -1.37272232252272       -0.14888853965370
C           -2.80399045062985       -0.12220735537966       -0.14297867324457
C           -1.38732898993893       -0.06418716690053       -0.12859017173604
C           -0.73267836855750        1.18394048157420       -0.10750076124133
C           -1.49103250982042        2.38152086356869       -0.08899041747206
C           -2.89893874364603        2.32206915326707       -0.10353505645407
C           -3.55664574728173        1.07040056959537       -0.13257229396180
C           -4.97241177381116        0.99854597458070       -0.13679972912249
C           -5.60375715613276       -0.24105936868607       -0.15253782988389
C            0.67650012866645        1.24244999405292       -0.08608774192949
C            1.43161055023748        0.05120935505922       -0.08390315126085
C            2.84899440549377        0.10936042130355       -0.04704812945214
C            3.50199867714613        1.35959042953963       -0.00565787133122
C            2.63348050183612        4.97960661921627        0.05867223807517
C            1.24100854808121        4.94330028825593        0.02497208947076
C            0.44567178759852        6.12720449862571        0.03924192564605
C           -0.90748742288105        6.07079819600800        0.01394430902354
H           -5.64295536797690        4.35150571191479       -0.08298013674694
H           -3.56893811648168        5.66042884753393       -0.03234646465357
H            5.31357299472138        4.79688187341046        0.12868809101457
H            6.62675866799610        2.72503736103566        0.12402363595876
H            6.72664761800481        0.26802885466317        0.08585226881209
H            5.69238873539264       -4.36201242947634        0.01433891885419
H            6.82994708555130       -2.18926469917517        0.05710403085892
H            3.61468591917013       -5.67660663177574       -0.03412645655501
H            1.53817264888166       -6.99466003457874       -0.07318427130339
H           -0.91234748200540       -7.09580633789143       -0.10781536938266
H           -3.09024886228743       -5.95297848237432       -0.13670360686967
H           -5.26978404972782       -4.81427725328243       -0.17105164194186
H           -6.58295611877028       -2.74024784657392       -0.18125722836494
H           -6.68293867347172       -0.27519522479482       -0.15752259184611
H            3.13425966406040        5.93671707424936        0.09596464540497
H            0.95525102117662        7.07912575255172        0.07284278035920
H           -1.49457052393949        6.97751159644649        0.02663193209273
O           -7.06791764117987        2.11733959904366       -0.12798317786359
H           -7.48508085000668        2.99245633097125       -0.11965631148889
