88
 energy: -184.770346501501 gnorm: 0.000900958720 xtb: 6.6.1 (8d0f1dd)
O           -2.22265664513927       -2.04723005481148        3.73769449500958
S           -0.94725276968592       -1.80392527076076        4.56845701538576
O           -1.26664913371502       -1.29809533402707        5.86439769114495
O           -0.05630713945253       -2.90542415404135        4.44546927439809
C           -0.15878103858127       -0.41586774861420        3.57632830044067
F           -1.10978739650793        0.33198234934983        3.00082917396202
F            0.54916638770533       -1.00563759926397        2.60704669479126
C            0.74157022779039        0.42957996739860        4.47955566491225
F            1.45583320493821       -0.39824651171589        5.26898520318283
F           -0.02208270890965        1.18857140288652        5.28432778629339
C            1.72788496180794        1.36556644120880        3.71602528200200
F            2.39778267547805        2.13578924083789        4.56671192786801
F            1.06479797047704        2.16049408244865        2.88417827071753
F            2.61240350223492        0.66853401399310        3.01521505706043
H           -3.06359009580064       -1.79793001069009        4.16289527545964
C           -5.73587763419807        2.26634796591859       -0.25178330478024
C           -5.09140120370118        3.46555423873996       -0.22786786140542
C           -3.67189920595555        3.55236915778171       -0.19426014908233
C           -3.00301188318039        4.77484916844674       -0.16536302100933
C           -1.61217360582418        4.84854566984612       -0.12940455437133
C           -0.85004097302528        3.65118802242081       -0.12735099280050
C            0.56325171780721        3.70477450245764       -0.09143008896513
C            1.31587102042424        2.51139149380082       -0.09576103715353
C            2.72493290159983        2.56308692582336       -0.04530838799770
C            3.38145707163430        3.82104335839528        0.00486864593818
C            4.80659524874974        3.83730598259516        0.06279430143699
C            5.52744259745686        2.69058027547000        0.07440944100250
C            4.89572957087530        1.41247016747279        0.02767417355426
C            5.61928572007013        0.22216701458110        0.04310473097647
C            4.98810908573883       -1.01918856241287        0.00379799659818
C            3.57126053186049       -1.07845267334118       -0.05755007575152
C            2.91064902570143       -2.32976070235114       -0.08561086078807
C            3.66101224682550       -3.53432742984385       -0.05377995206650
C            5.08357437269999       -3.44358106242056       -0.00208249469767
C            5.71557758616755       -2.24593083664897        0.02556247669785
C            2.99248339516733       -4.75655913267207       -0.07046407664952
C            1.60189423560093       -4.83001739706029       -0.10835300805769
C            0.90345287382722       -6.07370511948070       -0.11522770188025
C           -0.44962279824653       -6.12513023045579       -0.14303567369363
C           -1.23974886688681       -4.93778097793456       -0.16746682968311
C           -0.57175763281586       -3.68518951799464       -0.16699431690058
C            0.84209688120378       -3.63142012101428       -0.13910912666368
C            1.50185020377767       -2.38447841974308       -0.13598635078385
C            0.74743542337787       -1.18432145651704       -0.16850318747725
C           -0.66189580315202       -1.23733024068718       -0.19090711434279
C           -1.32382674826303       -2.49181295542159       -0.19057011640196
C           -2.73360588184152       -2.54396554081599       -0.21166683962900
C           -3.39151104050606       -3.80187347242269       -0.21723508701390
C           -2.63214659474959       -4.96992269232058       -0.19412038913351
C           -4.81744124613625       -3.81964164270186       -0.25045290335259
C           -5.53892909505401       -2.67316546973824       -0.27193283741476
C           -4.90562383350693       -1.39564259946825       -0.25811508490630
C           -3.48756892528231       -1.34572874182769       -0.22910977601157
C           -2.83098405190755       -0.09654735963813       -0.21198204552025
C           -1.41329400670404       -0.04329850719686       -0.19247716043153
C           -0.75464544489346        1.20366249363516       -0.16644329125870
C           -1.50957582285574        2.40425107531150       -0.16013877781287
C           -2.91800607547349        2.34972562833128       -0.18959678438550
C           -3.58018152613158        1.09969823850476       -0.21551249175132
C           -4.99634588211828        1.03234200419521       -0.24572366842493
C           -5.63093536725829       -0.20567752453863       -0.26850487844218
C            0.65455450974577        1.25690908005080       -0.13872456386740
C            1.40571246539489        0.06296324087111       -0.13842029415953
C            2.82187217507949        0.11646960128076       -0.08181521591935
C            3.47841765361574        1.36464314843431       -0.03569037079579
C            2.62196521303375        4.98899813475320       -0.00231721579108
C            1.22991605886398        4.95723484143160       -0.04941371155241
C            0.43857503855487        6.14391666855248       -0.05575155975979
C           -0.91444859025119        6.09216157300399       -0.09495023789644
H           -5.65514182805870        4.38785880879571       -0.23327970406966
H           -3.57649740053781        5.69081786595996       -0.16990020958005
H            5.30096395809828        4.79717811057597        0.09917237040485
H            6.60629701563247        2.72058461501507        0.12063908194687
H            6.69835118797887        0.26294547709775        0.09027053243453
H            5.64927206928199       -4.36363370990371        0.01761993514108
H            6.79379006586131       -2.19473028137037        0.06760423648187
H            3.56765967280187       -5.67136178665145       -0.04744615806644
H            1.48755095465480       -6.98217904734697       -0.09562598125292
H           -0.96281544764836       -7.07560062373528       -0.14682019679457
H           -3.13589836328291       -5.92601547135678       -0.19836289152672
H           -5.31131530780948       -4.78009898006470       -0.26071693399137
H           -6.61807671113054       -2.70263717973571       -0.29972384506624
H           -6.70971832528610       -0.23682111873863       -0.29405907221265
H            3.12642462634437        5.94437920857217        0.03193522417121
H            0.95141877734532        7.09435129840007       -0.02841698467737
H           -1.49787312083180        7.00133782149772       -0.09989146554270
O           -7.08711003645613        2.15789782397491       -0.27976962283274
H           -7.50219466602016        3.03379199472019       -0.27961830254192
