87
 energy: -180.692405745088 gnorm: 0.000880545821 xtb: 6.6.1 (8d0f1dd)
O           -2.82406091479222       -0.61965537062655        4.97823336110116
S           -2.04508561482934        0.27319439991638        3.99469582519995
O           -2.49736355079410        0.10982298910367        2.65583980261683
O           -1.92150522905562        1.57842322312590        4.54709800394491
C           -0.33983456113617       -0.51983110262183        4.09469961547952
F           -0.30869705043100       -1.50154583900618        3.18146059724690
F           -0.17058108674711       -1.08589999651774        5.29824800713031
C            0.72486961740055        0.54680695588212        3.83433584431813
F            0.78487555119279        1.37636955898669        4.89255386068529
F            0.33861632220238        1.27973379960121        2.77485942342641
C            2.16876308512432        0.00667150210361        3.59310334228894
F            2.96183588135219        0.96682580680383        3.13653145410402
F            2.19515647495806       -0.99797330631698        2.73041968369990
F            2.67830146020752       -0.43539700092185        4.74137114254210
H           -3.39711631795256       -1.32288118724259        4.62138695475149
C           -5.69788489742645        2.26215625107025       -0.14083266680215
C           -5.06561552989228        3.45961787117938       -0.11348464548250
C           -3.64213724208548        3.54955468186146       -0.09228384665159
C           -2.97363315942243        4.77139643603621       -0.05510259030424
C           -1.58259400082151        4.84442800269856       -0.03066013203494
C           -0.82241193771267        3.64558527837084       -0.04868262052932
C            0.59168422678963        3.69908024420802       -0.02088437964671
C            1.34410041777064        2.50570969822765       -0.03755502288567
C            2.75361786057397        2.55722837636610        0.00400398116380
C            3.41108392788416        3.81426682332130        0.05627091356576
C            4.83667639280633        3.83028712709274        0.10073012063405
C            5.55767023900093        2.68380241631324        0.09830086345847
C            4.92530476426197        1.40629302495410        0.05034577165453
C            5.64875928413027        0.21571539328685        0.05509820704044
C            5.01709795422688       -1.02562303010128        0.01816037427070
C            3.59955018507865       -1.08448342205849       -0.02812929397796
C            2.93806327340077       -2.33567118142618       -0.04616849811048
C            3.68837450866731       -3.54051980864492       -0.02695149809029
C            5.11155117537577       -3.45024277800509        0.00766023212252
C            5.74423217370677       -2.25286575555257        0.03061954354526
C            3.01934481166058       -4.76256550040514       -0.03897575821761
C            1.62826067443822       -4.83545413746878       -0.06374723229727
C            0.92934795838164       -6.07904690248635       -0.07274491396913
C           -0.42402014381206       -6.12975519589917       -0.09349189111208
C           -1.21399492520611       -4.94198989560219       -0.10836338853504
C           -0.54590373632291       -3.68913798018832       -0.10156711933111
C            0.86839803249721       -3.63635064315158       -0.07963937901061
C            1.52850601228974       -2.38951338021951       -0.07414583318545
C            0.77362643071931       -1.18885687879042       -0.09298907022406
C           -0.63554629134236       -1.24084456255719       -0.11616405370776
C           -1.29753595597643       -2.49507943057521       -0.11964346539945
C           -2.70733331821570       -2.54645163766094       -0.14122187619054
C           -3.36546822108378       -3.80475227123964       -0.14640479058811
C           -2.60676232031257       -4.97346520206383       -0.13066221574670
C           -4.79186573491417       -3.82152690701576       -0.16940927186889
C           -5.51224353890078       -2.67437890915249       -0.17897327691502
C           -4.87877129540094       -1.39588702617971       -0.16879039214753
C           -3.45997281208823       -1.34765712685762       -0.15566601911606
C           -2.80236985744412       -0.10023404621674       -0.14839262986782
C           -1.38594409848485       -0.04713555813823       -0.13025940875413
C           -0.72759675109735        1.19904591664800       -0.10772674105147
C           -1.48203912902746        2.39917729757340       -0.09121497740021
C           -2.89139667350984        2.34481032156349       -0.10991811026539
C           -3.55186078773288        1.09398265928929       -0.14104938049944
C           -4.96997012106259        1.03536698695336       -0.15139997556295
C           -5.60281944439976       -0.20567813105477       -0.16872687490327
C            0.68168991425676        1.25233404868101       -0.08386121210867
C            1.43259741742613        0.05832146049358       -0.08061676032685
C            2.85012867245104        0.11133603821332       -0.04283225967346
C            3.50748679759239        1.35921530609311       -0.00038430622028
C            2.65177112082243        4.98226461638247        0.06412511941552
C            1.25925004064987        4.95101084059767        0.02825941926075
C            0.46891007284464        6.13842606305199        0.04137228112567
C           -0.88428149162693        6.08754402728595        0.01309956734123
H           -6.77684295647788        2.21183389666040       -0.15486805177586
H           -5.63106392476526        4.38000277360784       -0.10530100433588
H           -3.54880067299622        5.68644274529168       -0.04257787360837
H            5.33104399934279        4.78993350892998        0.13863523615499
H            6.63681985899276        2.71343225292775        0.13447274600543
H            6.72813675112141        0.25610557022505        0.09291674776074
H            5.67752640428327       -4.37024411953250        0.01820769118300
H            6.82282448377925       -2.20162412006238        0.06065358212370
H            3.59469615675199       -5.67740938381538       -0.02645303779925
H            1.51313701894108       -6.98779797179434       -0.06246131406215
H           -0.93762192801173       -7.07991502969169       -0.10040759867841
H           -3.11141074958547       -5.92906981702575       -0.13760191926454
H           -5.28709051836413       -4.78135632916948       -0.17980157941338
H           -6.59181150212748       -2.70408812195071       -0.19665129818434
H           -6.68290356994394       -0.24552270183032       -0.17836980579704
H            3.15590034316892        5.93752453979312        0.10224238867352
H            0.98243949091048        7.08810089951943        0.07637620257599
H           -1.46826467610233        6.99619206654709        0.02472535401465
