88
 energy: -184.767398007696 gnorm: 0.000649355251 xtb: 6.6.1 (8d0f1dd)
O           -2.80636181326866       -0.41829314490427        2.86533788894391
S           -2.03688255095969        0.68028359324917        3.62415690324047
O           -1.81129057052621        1.82137728181170        2.80330186577632
O           -2.58211001909848        0.83408107206811        4.92922919909103
C           -0.38794026173839       -0.18947719120884        3.83859980317551
F            0.07345558209580       -0.44292634969761        2.60580315958109
F           -0.62021076329098       -1.37020515582144        4.42476336591232
C            0.60094402979745        0.64979483050235        4.65767387691659
F            0.67805170926893        0.17947751073324        5.91375399288261
F            0.14572303320575        1.91790658412089        4.74899349849768
C            2.03674324921690        0.69799637697634        4.04938265711591
F            2.88040876341905        1.28502858691496        4.88985506550156
F            2.04733689753315        1.38126252931902        2.91365164728700
F            2.49317978881235       -0.52624681192254        3.80565214926422
H           -2.78527803391610       -0.33541311579397        1.87670529682955
C           -5.71234435510802        2.13545416331474        0.05112124771824
C           -5.06581766653600        3.33382756251192        0.06780700008770
C           -3.64609408096885        3.42206389022581        0.04776275371540
C           -2.97657105274141        4.64381356153918        0.07562341083334
C           -1.58556106663526        4.71629738618015        0.07256852333869
C           -0.82402812454720        3.51959730145988        0.02959750390347
C            0.58979011513308        3.57258585054245        0.03988247813040
C            1.34265317058065        2.38019831209339        0.00127247028589
C            2.75224248654752        2.43129201545451        0.02372584920341
C            3.41019533276881        3.68767621811233        0.08255951806852
C            4.83635470582027        3.70333117706086        0.10938875901491
C            5.55728170667247        2.55691991740187        0.08147280798879
C            4.92403281674223        1.27995245868343        0.02234717089629
C            5.64780496893552        0.08961579730577       -0.00814235771785
C            5.01595458837884       -1.15092739550687       -0.06576310050457
C            3.59771190915033       -1.20903475090353       -0.09172082975490
C            2.93722027829234       -2.45983743425225       -0.14539103124970
C            3.68798234032197       -3.66423504834416       -0.17943096791378
C            5.11140959058353       -3.57409922050565       -0.15723267124859
C            5.74360178249438       -2.37742948769115       -0.10132141940670
C            3.01879590831773       -4.88539342198678       -0.23150642417042
C            1.62746698579929       -4.95848694676067       -0.24125886201214
C            0.92848156357516       -6.20131153136603       -0.28683898580591
C           -0.42503794434344       -6.25281892361350       -0.28394869092698
C           -1.21574282457342       -5.06637665152190       -0.23433490242488
C           -0.54753726737995       -3.81402199423883       -0.19699805442507
C            0.86701086289921       -3.76026028389888       -0.20175159151118
C            1.52729388741972       -2.51371205028164       -0.16158457230512
C            0.77295354121498       -1.31337988741936       -0.13141271182609
C           -0.63623602173704       -1.36712957204953       -0.12346009821736
C           -1.29971723617587       -2.62095766464301       -0.14910261746890
C           -2.71010011729284       -2.67560738844294       -0.12834744833716
C           -3.36836165895737       -3.93269425762963       -0.16578885401024
C           -2.60849020561013       -5.09954742620810       -0.22041770055507
C           -4.79452379666806       -3.94984374510948       -0.14426584846928
C           -5.51697362200113       -2.80485474819338       -0.09225222505099
C           -4.88361550914734       -1.52801511883885       -0.05527216873310
C           -3.46580387876862       -1.48004149597818       -0.07204872893139
C           -2.80615558835815       -0.22689626913934       -0.03528167901142
C           -1.38457911202700       -0.17225346518164       -0.07575893280950
C           -0.72810299783645        1.07535770619325       -0.05223166052892
C           -1.48381730849073        2.27435260272676       -0.01130490930727
C           -2.89234451117268        2.22124976258277        0.00384253315761
C           -3.55680598048403        0.97343465803449       -0.00736550195371
C           -4.97275315445306        0.90222772466652        0.01325181540494
C           -5.60608688884674       -0.33695984734321       -0.00842831655824
C            0.68085818694921        1.12749851562483       -0.05142391365381
C            1.43065147595704       -0.06648466194106       -0.08634379933850
C            2.84771960861226       -0.01390172930852       -0.06315162976286
C            3.50538226468468        1.23336475362840       -0.00678887468461
C            2.65068052536251        4.85536574330698        0.11285030826985
C            1.25781232701653        4.82412034194786        0.09316786993135
C            0.46677655837465        6.01062918456099        0.12664252365468
C           -0.88681827729713        5.95920742251309        0.11631844711319
H           -5.62888569943336        4.25571641569053        0.09994888441129
H           -3.54944184233974        5.55942070711968        0.11042475533902
H            5.33161449351356        4.66219056164158        0.15408052527766
H            6.63681532314315        2.58633849015714        0.10330736439543
H            6.72761219345494        0.12980433961809        0.01278611784428
H            5.67781812032239       -4.49336148546429       -0.18451104737685
H            6.82238249738869       -2.32672758181038       -0.08297821332957
H            3.59415303703604       -5.79967813141176       -0.26156711587264
H            1.51228147858581       -7.10931310168365       -0.32244982618476
H           -0.93834582876431       -7.20244611934972       -0.31746188292483
H           -3.11234944133765       -6.05483215685188       -0.25068369984010
H           -5.28901497295978       -4.90936133526830       -0.17242299518678
H           -6.59597754036677       -2.83505648292933       -0.07868556078274
H           -6.68480623795304       -0.36706400758279        0.00176430793722
H            3.15498595351260        5.81031771269460        0.15543267435420
H            0.97973679000161        6.96056752602414        0.16239587712572
H           -1.47015385944579        6.86787966603808        0.14382880485392
O           -7.06252407470787        2.02506947782688        0.07144562308453
H           -7.48059146214995        2.89939122512842        0.09334254931855
