87
 energy: -180.689678254453 gnorm: 0.000699568961 xtb: 6.6.1 (8d0f1dd)
O           -2.17815299748113       -2.06918522904655        3.73276306886626
S           -0.90556410386206       -1.82002653337588        4.56433809562560
O           -1.22813948896327       -1.31840178443054        5.86141334042776
O           -0.00622376604434       -2.91490805758596        4.43917137036708
C           -0.12567087978896       -0.42591051252578        3.57315017968374
F           -1.07991660390761        0.31088057034150        2.98863871304286
F            0.59527128983090       -1.01043380086206        2.61065222897155
C            0.75902747719580        0.43115607703422        4.48105098091658
F            1.47560100898699       -0.38732003920273        5.27800925555869
F           -0.01895600470142        1.18450026618619        5.27751645704261
C            1.74219203993365        1.37509808740878        3.72319726716638
F            2.40163946866739        2.14970810070802        4.57782220487560
F            1.07800441971433        2.16520754828928        2.88761877976494
F            2.63561294412035        0.68508651973662        3.02648043903822
H           -3.02468341236250       -1.85027755888453        4.16335159006397
C           -5.71488792514007        2.30142050941253       -0.28326504978367
C           -5.07804775192795        3.49661212243128       -0.25701028820704
C           -3.65467429240961        3.58184357583937       -0.21422034709119
C           -2.98151819676109        4.80127674415038       -0.18178274518182
C           -1.59051147066747        4.86897104481581       -0.13897861928022
C           -0.83454626182235        3.66733523613700       -0.13413478992727
C            0.57932094525630        3.71515973161385       -0.09262237758984
C            1.32716928595464        2.51880359917224       -0.09517144949499
C            2.73643693031801        2.56472494268727       -0.04101617537533
C            3.39774868934887        3.81993184892809        0.01221263212780
C            4.82286767309537        3.83061052288769        0.07297041631098
C            5.53915049383942        2.68100849413781        0.08407852381974
C            4.90249572042753        1.40545689498044        0.03521134654812
C            5.62133707189337        0.21225799624878        0.05136015911787
C            4.98529212717746       -1.02656001975664        0.01162930190343
C            3.56826125522901       -1.08019890258696       -0.05147331635030
C            2.90277193023854       -2.32890248604153       -0.07926318826975
C            3.64813399313868       -3.53652632607887       -0.04525716414570
C            5.07106720694295       -3.45139168198466        0.00765841371247
C            5.70780815195615       -2.25625475843784        0.03493172347468
C            2.97459031567411       -4.75597934597753       -0.06106549225952
C            1.58363759321903       -4.82377982941062       -0.10028548981395
C            0.88000849875779       -6.06452552778842       -0.10606635108189
C           -0.47328745435834       -6.11037227648628       -0.13661999821309
C           -1.25838520487898       -4.91987770233769       -0.16524152272224
C           -0.58517474778154       -3.67014321905119       -0.16492778690748
C            0.82886702092796       -3.62213864448000       -0.13408610642323
C            1.49390497730019       -2.37798443214980       -0.13173572317459
C            0.74462193832737       -1.17478026323047       -0.16727560119484
C           -0.66479169278083       -1.22215874831913       -0.19283248033959
C           -1.33222892638778       -2.47367551687083       -0.19253513686419
C           -2.74221783160944       -2.51995137828947       -0.21816239440639
C           -3.40525919637147       -3.77516380784154       -0.22358323267515
C           -2.65104464083553       -4.94621162378074       -0.19611776041342
C           -4.83134905414834       -3.78623221157782       -0.26078618770428
C           -5.54763155711026       -2.63682413092162       -0.28707668817361
C           -4.90965706787636       -1.36090276718446       -0.27462995654438
C           -3.49076411415240       -1.31870874556679       -0.24059358572797
C           -2.82839383323576       -0.07290579030993       -0.22335689704895
C           -1.41098148616914       -0.02513622321878       -0.19871574031083
C           -0.74816352023433        1.21957350997424       -0.17212480904846
C           -1.49865431503893        2.42304864720196       -0.16959394869777
C           -2.90838132240036        2.37417754339830       -0.20518259418934
C           -3.57379730146535        1.12521843456723       -0.23242379911363
C           -4.99208556797282        1.07161961295514       -0.26969596038708
C           -5.62880531237040       -0.16756645453657       -0.29160660625665
C            0.66112599010487        1.26701834047074       -0.14002950761920
C            1.40754378226173        0.06998801533241       -0.13710783031801
C            2.82377052604064        0.11774274333383       -0.07764322648408
C            3.48514692965840        1.36330348944999       -0.03050242351446
C            2.64291631413762        4.99095481901029        0.00496890257546
C            1.25092795269243        4.96483699419734       -0.04675293246077
C            0.46512781724947        6.15533790696234       -0.05467185884860
C           -0.88779720584436        6.10970341273958       -0.10018874826208
H           -6.79351983457632        2.25499453773142       -0.31602207603827
H           -5.64011179364128        4.41895983239782       -0.26816880365611
H           -3.55280414684015        5.71870722179553       -0.18906807482607
H            5.32084010481441        4.78846688148358        0.11166056486336
H            6.61800429165133        2.70671747278270        0.13196122614321
H            6.70045600947465        0.24875859002059        0.09983726720311
H            5.63308088429045       -4.37365371188460        0.02866341531403
H            6.78614838395677       -2.20937596572630        0.07801560127429
H            3.54596942420880       -5.67312473671503       -0.03642370759531
H            1.46019886308100       -6.97542917045139       -0.08352843670286
H           -0.99029352914812       -7.05879921777559       -0.13976450565466
H           -3.15871282615143       -5.90027378780151       -0.20037065964125
H           -5.32969240123422       -4.74441973064576       -0.27096960699900
H           -6.62691114021528       -2.66318449435739       -0.31887955016115
H           -6.70842616789003       -0.20386710104565       -0.32162735946155
H            3.15094942387014        5.94424065252292        0.04244268537104
H            0.98220537791009        7.10328150084089       -0.02371299963197
H           -1.46772019421022        7.02102565423756       -0.10682848299851
