87
 energy: -180.686757073751 gnorm: 0.000540164182 xtb: 6.6.1 (8d0f1dd)
O           -2.80275768891384       -0.37589289218904        2.86377913404311
S           -2.02076818857843        0.71023913677692        3.62682021499070
O           -1.77639664791340        1.84893555006328        2.80806875948548
O           -2.56578282957537        0.86936730456035        4.93101195743608
C           -0.38435036531806       -0.18264436287572        3.84006610459175
F            0.07012690682053       -0.44192958660791        2.60577312383460
F           -0.63092498584025       -1.36064312723754        4.42618848847436
C            0.61785284719803        0.64235194299212        4.65726861863570
F            0.69919099985694        0.16328439457003        5.90985894167011
F            0.17484724670315        1.91399164429035        4.76001353588312
C            2.04965502704803        0.68187358912377        4.03899398353789
F            2.90442248152746        1.25794334806889        4.87556915523948
F            2.05697548139572        1.37102102682760        2.90656039649481
F            2.49450343903314       -0.54459879620481        3.78527238758118
H           -2.78468168456721       -0.28879271465258        1.87469836294673
C           -5.69095260095792        2.15920925906779        0.06124234165926
C           -5.05311731226819        3.35416865071405        0.07973047744062
C           -3.62950451720122        3.44265387242592        0.05745783009386
C           -2.95696756950674        4.66209940986388        0.08595803696285
C           -1.56566579399902        4.73019787192970        0.08015670333589
C           -0.80908379316061        3.53013501402236        0.03466334899579
C            0.60537321902102        3.57895267630828        0.04332899226403
C            1.35478874659006        2.38448647302206        0.00295547179776
C            2.76462392169492        2.43137075487464        0.02542821810168
C            3.42619675615334        3.68567932256356        0.08592860315111
C            4.85242786561544        3.69730843868944        0.11379482937226
C            5.57000925310682        2.54880970456505        0.08525538243825
C            4.93308347454818        1.27376828887940        0.02425694310403
C            5.65348176383683        0.08134836651483       -0.00673190116595
C            5.01813077149320       -1.15732563209358       -0.06569476117055
C            3.59971529247985       -1.21129756330456       -0.09247173795430
C            2.93574090353560       -2.46022231407567       -0.14682078687616
C            3.68299014819381       -3.66680545182865       -0.18091932905185
C            5.10671146614105       -3.58076211092737       -0.15814082776051
C            5.74229596526959       -2.38593677604801       -0.10142770661760
C            3.01017660490055       -4.88593762578189       -0.23326448487582
C            1.61854892333679       -4.95499105472373       -0.24297176235479
C            0.91589598322004       -6.19572649860753       -0.28823785502655
C           -0.43783411620342       -6.24323085739372       -0.28489111643619
C           -1.22496372820904       -5.05450341406219       -0.23499503058815
C           -0.55310061125452       -3.80417706635973       -0.19800952853319
C            0.86163967643217       -3.75454941285576       -0.20335595157355
C            1.52573244438976       -2.51003144013788       -0.16317886161142
C            0.77502100508992       -1.30750400858418       -0.13254639849298
C           -0.63424144100901       -1.35725088254893       -0.12392809069785
C           -1.30174116708485       -2.60889924901265       -0.14938754692800
C           -2.71228978167893       -2.65933493449943       -0.12712846150075
C           -3.37418585969416       -3.91449863070228       -0.16433444574589
C           -2.61799314788058       -5.08345842911913       -0.22006412820595
C           -4.80051940651524       -3.92669122743113       -0.14100142095396
C           -5.51918359886620       -2.77964856656611       -0.08697513650173
C           -4.88261629026132       -1.50372030571710       -0.04981503540697
C           -3.46404925686731       -1.46176210007550       -0.06890644727689
C           -2.80014119811176       -0.21122476290933       -0.03144430108123
C           -1.37877714878391       -0.16036631141185       -0.07445604001255
C           -0.71953726502171        1.08577120354548       -0.05036868418519
C           -1.47227377634397        2.28674218451985       -0.00692501626547
C           -2.88201001847383        2.23771978428186        0.01099119903765
C           -3.54873246642136        0.99014042400194       -0.00110098894192
C           -4.96698829232010        0.93099399420012        0.02142888685882
C           -5.60059216919379       -0.31026707394746       -0.00069073475439
C            0.68953091927127        1.13373583661803       -0.05075809446036
C            1.43596809446367       -0.06241680684304       -0.08686658393517
C            2.85318998077680       -0.01400472099803       -0.06351966713088
C            3.51435381868196        1.23130184187940       -0.00591637156082
C            2.67010881159483        4.85558929177296        0.11721975852081
C            1.27715292497791        4.82845475025565        0.09757653724733
C            0.49044211135088        6.01791523226268        0.13214179089002
C           -0.86321626164932        5.97105379720150        0.12341033567890
H           -6.76954449822591        2.11213446830704        0.07706967039384
H           -5.61596140130679        4.27526543781794        0.11216763262160
H           -3.52871799153065        5.57842604683820        0.12260839568241
H            5.35032509829699        4.65466531093719        0.16009191568990
H            6.64957625590131        2.57501077224475        0.10816870518368
H            6.73336042655034        0.11840928692257        0.01510307360436
H            5.67044139114446       -4.50163789499862       -0.18561056414200
H            6.82118005952039       -2.33828350294348       -0.08259638419421
H            3.58279842457765       -5.80192632846796       -0.26324553057591
H            1.49697021066657       -7.10545172482401       -0.32406105194870
H           -0.95393093890437       -7.19135540528269       -0.31825153684376
H           -3.12461847790519       -6.03732447949556       -0.25003211436417
H           -5.29829917990551       -4.88454791303417       -0.16927660051512
H           -6.59835611052037       -2.80803965688131       -0.07185403797078
H           -6.68002180380898       -0.34763710388435        0.01113717638798
H            3.17714122907778        5.80897873410467        0.16069989353559
H            1.00680426221142        6.96589035470804        0.16834992280114
H           -1.44411225195632        6.88113692502136        0.15262081848445
