81
 energy: -157.493669503511 gnorm: 0.000515923474 xtb: 6.6.1 (8d0f1dd)
O           -0.46181088737922       -0.90185638709097        4.85805337751441
S           -0.04364198725639       -0.81249412564703        3.36868164179933
O            0.01500641124431       -2.12882087153314        2.83381164566973
O           -0.78608087128218        0.20594794474560        2.70160873824643
C            1.72372389018974       -0.21877183440848        3.53951218390824
F            2.54762832007986       -1.08774427741973        2.98090532042789
F            1.86707936089637        0.96231213939176        2.95786907995118
F            2.05247094364354       -0.09200676828008        4.82081923768639
H           -1.01366158421449       -0.17990656187327        5.20717863695577
C           -5.79441593168481        2.32414254360618       -0.30260374125214
C           -5.15951920150828        3.52062718224872       -0.30219023757252
C           -3.73656609628513        3.60906221863011       -0.25124259545082
C           -3.06545999247673        4.83014752754811       -0.24380191280149
C           -1.67506655534173        4.90099194588270       -0.18758804726747
C           -0.91785164536525        3.70077688961071       -0.14027365632802
C            0.49533167750742        3.75213194730326       -0.07781323116840
C            1.24389063451566        2.55685324039363       -0.03060751502047
C            2.65240634795577        2.60706402226385        0.03612193121631
C            3.31220027475575        3.86394446508800        0.05572350049111
C            4.73695322777160        3.87853943747655        0.12484989105762
C            5.45494264454234        2.73098760131354        0.17080300305608
C            4.82017113146817        1.45358887744319        0.15187239709931
C            5.54061549589581        0.26207329102902        0.20150412480277
C            4.90671112643738       -0.97857691318044        0.18757911114136
C            3.49006885783967       -1.03596318420440        0.11727544382988
C            2.82592404758067       -2.28606072534536        0.11625139327856
C            3.57298619686150       -3.49102292075341        0.18404356287094
C            4.99532003228088       -3.40228378612416        0.24528178844664
C            5.63054043855677       -2.20618440633191        0.24674749589049
C            2.90114798166760       -4.71127788939119        0.19163183621417
C            1.51082134393744       -4.78191714225867        0.13647512277623
C            0.80944603926099       -6.02397252248759        0.14885096465469
C           -0.54309673073609       -6.07272207227548        0.09938262256653
C           -1.32915234591099       -4.88428443820534        0.03204852930502
C           -0.65805597361871       -3.63355634649520        0.01453811025419
C            0.75465509213462       -3.58289120738029        0.06622836895426
C            1.41737844882958       -2.33816983735792        0.05597395540857
C            0.66598926457013       -1.13692604385940       -0.00524358765772
C           -0.74168044735790       -1.18734934173061       -0.06311205612280
C           -1.40604043806423       -2.43956091837517       -0.05011969809025
C           -2.81551410781047       -2.48927293669259       -0.09397462951887
C           -3.47689944507342       -3.74553053196201       -0.07940766545193
C           -2.72127008288584       -4.91433939354106       -0.01735672219163
C           -4.90262010258452       -3.75976685056816       -0.12944721613887
C           -5.62034026307820       -2.61240017857437       -0.18497411817734
C           -4.98424116210433       -1.33552095619897       -0.19531953818175
C           -3.56568077286024       -1.29014185876670       -0.15073071785097
C           -2.90465305688947       -0.04347124339120       -0.16100156815520
C           -1.48828551329110        0.00717813951460       -0.11867678999163
C           -0.82798036378509        1.25271504341690       -0.11257507281986
C           -1.57953819705651        2.45439235361528       -0.15417076447668
C           -2.98872385406511        2.40297922758696       -0.20600613812273
C           -3.65201643551604        1.15264070766235       -0.20798265529133
C           -5.07003217984374        1.09606449955682       -0.25324835888732
C           -5.70499853727391       -0.14417255637092       -0.24770906075802
C            0.57936872958936        1.30408994648683       -0.05069183036930
C            1.32669129139413        0.10897652610297       -0.00057804193082
C            2.74352281066128        0.16037448408766        0.06249893972065
C            3.40295381130572        1.40793005700250        0.08186913795729
C            2.55653301845537        5.03344283016049        0.00563316543514
C            1.16518785820325        5.00383237159696       -0.06117879952862
C            0.37812186258134        6.19247685048714       -0.11433962358397
C           -0.97413026966076        6.14344728787542       -0.17483266889897
H           -6.87279542212410        2.27461716069936       -0.34051782318865
H           -5.72307034391920        4.44138978975926       -0.33984764521710
H           -3.63820864602141        5.74595744240740       -0.28076604313949
H            5.23362274383200        4.83766744466489        0.13956548098768
H            6.53351988792197        2.75909853795185        0.22324447503480
H            6.61937341259335        0.30102939648300        0.25560649640351
H            5.55813567823031       -4.32300413106768        0.29313777794046
H            6.70847221916221       -2.15651541843101        0.29599166856302
H            3.47313049829781       -5.62686697799917        0.24510379413462
H            1.39051366076947       -6.93316739380398        0.20102779139254
H           -1.05939857796162       -7.02156785138764        0.11119666909634
H           -3.22785923888245       -5.86909737389317       -0.00581343188367
H           -5.39951121960860       -4.71885793559528       -0.12213257418558
H           -6.69946187797564       -2.64102274527273       -0.22297445559544
H           -6.78446138610305       -0.18339387067205       -0.28390415733228
H            3.06298024122998        5.98813984316689        0.01861600799553
H            0.89355997192155        7.14171372195450       -0.10535452585343
H           -1.55530418169649        7.05308278997861       -0.21500650469070
