81
 energy: -157.493652376956 gnorm: 0.000697027612 xtb: 6.6.1 (8d0f1dd)
O           -0.47711525457041       -0.88180104569923        4.85378655486337
S           -0.06393640517678       -0.79668156183818        3.36277556417437
O            0.01816431497400       -2.11432573812515        2.83531533094337
O           -0.82794811931725        0.20455829049988        2.69371244912606
C            1.69225769909355       -0.16852593999272        3.52430130922422
F            2.53203167058669       -1.03088725171983        2.97950163400084
F            1.81405784607231        1.00583366881422        2.92505465804892
F            2.01842469368498       -0.01615054999764        4.80371296717722
H           -1.04264466596495       -0.16763730991304        5.19697187915094
C           -5.79381942711412        2.31229206929264       -0.30734836869822
C           -5.16015410041363        3.50938920242340       -0.31665190954583
C           -3.73710630125078        3.59950503837046       -0.27198131018261
C           -3.06731251215654        4.82133448471451       -0.27288131078661
C           -1.67682883849861        4.89394166326448       -0.22188640161539
C           -0.91815413873166        3.69476357927382       -0.17119300819240
C            0.49509902511925        3.74800923267942       -0.11221884819966
C            1.24500849648042        2.55384285781723       -0.05889670801905
C            2.65346032666639        2.60602982087052        0.00756812752313
C            3.31195467502695        3.86371149208274        0.01802809071508
C            4.73667488261862        3.88033137321204        0.08728912300128
C            5.45571358115676        2.73397102619918        0.14496359863700
C            4.82217764427983        1.45585216964781        0.13767497650205
C            5.54355848856009        0.26566833543071        0.20251369439084
C            4.91086686720664       -0.97567015415902        0.19942526961162
C            3.49462350695999       -1.03524374381877        0.12336509287394
C            2.83172435086556       -2.28594870220819        0.13223921330546
C            3.57972486249883       -3.48935293401539        0.21568311171620
C            5.00160587097946       -3.39848115491458        0.28373651205059
C            5.63560902715795       -2.20175986884454        0.27593686008247
C            2.90919544787771       -4.71022864375344        0.23209357459632
C            1.51916962498445       -4.78291415903766        0.17240376674197
C            0.81913732989551       -6.02559357529671        0.19427582766061
C           -0.53329141728129       -6.07618496351048        0.14379257384968
C           -1.32051199517485       -4.88912286232848        0.06645780008069
C           -0.65064954480438       -3.63796240871636        0.03668805390374
C            0.76197738273197       -3.58541800258320        0.08865544921571
C            1.42345415188824       -2.34016717904598        0.06775192283771
C            0.67092710422696       -1.14029907219476       -0.00575779284966
C           -0.73673770690171       -1.19260448650827       -0.06287596547188
C           -1.39985048373195       -2.44530702824495       -0.03786432200838
C           -2.80939776236735       -2.49665362763735       -0.07682213950989
C           -3.46960411625466       -3.75329788024262       -0.04827835336772
C           -2.71270967206177       -4.92087811686132        0.02093826811175
C           -4.89554985225735       -3.76918073248563       -0.09065813004052
C           -5.61456297919159       -2.62293105905934       -0.15214252843359
C           -4.97961572694411       -1.34568862655101       -0.17728675464351
C           -3.56088377956466       -1.29871015563912       -0.14045784839581
C           -2.90109874834328       -0.05157926952106       -0.16351429975077
C           -1.48466045039523        0.00071903189294       -0.12638911546968
C           -0.82561182406881        1.24696012702921       -0.13006416962362
C           -1.57853188830023        2.44761810704061       -0.17682094580607
C           -2.98781222579246        2.39444700629439       -0.22350329779172
C           -3.64980548743776        1.14346088186438       -0.21530105702527
C           -5.06796916660920        1.08527145099619       -0.25338748947775
C           -5.70174133009334       -0.15544321527279       -0.23544342462761
C            0.58178068931267        1.30024818826789       -0.07029423770423
C            1.33039017206441        0.10628208131173       -0.01107019853151
C            2.74706000209220        0.15973127520384        0.05440141797179
C            3.40517268939839        1.40808852736715        0.06432301346853
C            2.55501512693914        5.03203690752034       -0.03923468864226
C            1.16359836811607        5.00051633657316       -0.10354362576714
C            0.37512085203839        6.18802227011533       -0.16090039984458
C           -0.97724948586390        6.13721053618489       -0.21717717148305
H           -6.87230851912393        2.26146418103452       -0.34007047504558
H           -5.72480977899138        4.42936316024978       -0.35695559022499
H           -3.64123583128775        5.73633085008477       -0.31197041808595
H            5.23244712657466        4.84001422108790        0.09339573038799
H            6.53420464568180        2.76365977548094        0.19833056981713
H            6.62204304350769        0.30626262598112        0.26066042979148
H            5.56505925781193       -4.31802476644044        0.34471622366025
H            6.71318216270569       -2.15044800742884        0.33081679988867
H            3.48189917141410       -5.62464014225255        0.29681726300682
H            1.40110686432948       -6.93369009986542        0.25494484860986
H           -1.04865240676772       -7.02540865525497        0.16349517236836
H           -3.21840251075875       -5.87593167673152        0.04254180765736
H           -5.39154966676674       -4.72856866833021       -0.07173491160031
H           -6.69387840028452       -2.65272988989357       -0.18316944749800
H           -6.78135288507185       -0.19590300460796       -0.26549313410432
H            3.06043822565014        5.98734482720196       -0.03283046673472
H            0.88947807673600        7.13786796424365       -0.15754170104821
H           -1.55953894028340        7.04601829287652       -0.25944556486594
