82
 energy: -161.573557069314 gnorm: 0.000946281958 xtb: 6.6.1 (8d0f1dd)
O           -0.34186327248442       -1.16331768416741        4.84482252017906
S            0.11865147560345       -0.71446427135226        3.43572774864224
O            0.85471724383431       -1.76556575373520        2.82309309043081
O           -0.94235697999156       -0.06980711729169        2.73509667172076
C            1.35625003148238        0.58269554320835        3.91884506957138
F            1.88915390658882        1.14418804945093        2.84816197310798
F            0.76388052360771        1.52228684036173        4.64598785881354
F            2.31798314138694        0.03099056737901        4.64451388979280
H           -1.22866115018799       -0.88681243893307        5.13601206140200
C           -5.80681740464083        2.25159429738522       -0.23411757807941
C           -5.16529435365944        3.45226039789733       -0.21252193484909
C           -3.74609091837566        3.54217758520834       -0.16993876866257
C           -3.08001168286837        4.76624551096245       -0.14193448551371
C           -1.68957767421441        4.84282215287812       -0.09589311329138
C           -0.92531969446951        3.64668232077904       -0.07919770851898
C            0.48784851803733        3.70319899995573       -0.03024120605379
C            1.24220915530022        2.51065381144520       -0.01305130316771
C            2.65093302116085        2.56605642759174        0.04076381089908
C            3.30538544788263        3.82554528141801        0.07295441241119
C            4.73071664662614        3.84543102332815        0.12637278522676
C            5.45375064537389        2.70044168631115        0.15057024938699
C            4.82392141888105        1.42073068038021        0.12284325289131
C            5.54989527233971        0.23198833015106        0.15127606589469
C            4.92089703696841       -1.01101076313814        0.12486546836124
C            3.50381067971556       -1.07352053832966        0.06307186560355
C            2.84565589431731       -2.32626538825514        0.03671723440576
C            3.59867010886048       -3.52901071101261        0.07604316602805
C            5.02088799748539       -3.43505460531422        0.13449690272591
C            5.65074041715995       -2.23619615278272        0.15688780939351
C            2.93329643247144       -4.75279613876009        0.05726932312619
C            1.54332496718496       -4.82874231129097        0.00611470673109
C            0.84753876139677       -6.07410723583767       -0.00577695646832
C           -0.50501982775961       -6.12856387977712       -0.04874181058329
C           -1.29725387359788       -4.94267932501878       -0.08426913070658
C           -0.63181049296576       -3.68834142772591       -0.07854996531690
C            0.78148971783450       -3.63164430723492       -0.03484426772912
C            1.43776631092320       -2.38354002085963       -0.02461150878306
C            0.68074258004508       -1.18509083937528       -0.06103814417627
C           -0.72700970764233       -1.24072919127841       -0.10791602122526
C           -1.38590286337452       -2.49632701471130       -0.11365430570041
C           -2.79552192581304       -2.55197572683432       -0.14939990811329
C           -3.45096387331289       -3.81154434461358       -0.15734488358423
C           -2.68940106425429       -4.97809534042873       -0.12534162621072
C           -4.87671527302220       -3.83238836830962       -0.19921533714496
C           -5.60023408431012       -2.68740095449538       -0.22584507791695
C           -4.96946450656241       -1.40851794330555       -0.21261330831501
C           -3.55173194191083       -1.35532335141505       -0.17621618570464
C           -2.89701880005771       -0.10508794496122       -0.16381945869612
C           -1.48037782261762       -0.04898672051714       -0.13070908807402
C           -0.82492963416830        1.19865355003570       -0.10213534195192
C           -1.58195146416843        2.39776342467449       -0.11232070675770
C           -2.98997537288421        2.34086751154267       -0.15515576065291
C           -3.64912170777864        1.08924895947324       -0.17950526485073
C           -5.06507279606010        1.01898930790117       -0.21652778525428
C           -5.69731111056165       -0.22027375978425       -0.23426253572035
C            0.58296420874951        1.25504522465286       -0.05086235879996
C            1.33594070543261        0.06282848978216       -0.03083812621132
C            2.75194090551211        0.11982770285793        0.03072796954643
C            3.40644832343233        1.36952418732707        0.06416468353215
C            2.54417119949946        4.99228838801440        0.05135851446061
C            1.15222451132425        4.95758123314595        0.00166518384080
C            0.35855521805724        6.14265307952188       -0.01930635052758
C           -0.99417590354226        6.08798840322279       -0.06525417219578
H           -5.73114379244708        4.37325777682280       -0.22590273650079
H           -3.65543245591662        5.68094257122475       -0.15528872275460
H            5.22348400834996        4.80654866614439        0.14762366069134
H            6.53274382051464        2.73264888066880        0.19180252799155
H            6.62899301881281        0.27477628729233        0.19613732961360
H            5.58825773072236       -4.35395791372420        0.16088424549163
H            6.72876947183576       -2.18255506756082        0.20109147567084
H            3.51029002057086       -5.66636992393421        0.08782899432536
H            1.43336796320059       -6.98131038263482        0.02185883652848
H           -1.01656077634758       -7.07994873395527       -0.05645821729312
H           -3.19151312019583       -5.93511715414164       -0.13250396588290
H           -5.36877442441866       -4.79388030784200       -0.20965576582164
H           -6.67932820868403       -2.71884460779590       -0.25804633437603
H           -6.77602698395363       -0.25406184384168       -0.26430112830057
H            3.04659010169159        5.94903970212789        0.07438586962007
H            0.86938419214984        7.09427694739577        0.00259952934161
H           -1.57949389060620        6.99581083748216       -0.08047827091283
O           -7.15815265834264        2.14099467000786       -0.27046364375227
H           -7.57368205565703        3.01682312424748       -0.27889106368790
