82
 energy: -161.574171381048 gnorm: 0.000435673875 xtb: 6.6.1 (8d0f1dd)
O           -0.41900984336834       -0.89933024871658        4.86118798520416
S            0.00110779431673       -0.80994334551451        3.37197517206817
O            0.08779032880086       -2.12734586158058        2.84439101440378
O           -0.76155225872299        0.18950952074261        2.69916157013373
C            1.75544792211774       -0.17915415991540        3.54370815558235
F            2.59865445830460       -1.03120355047012        2.98833117130400
F            1.87414085010322        1.00377886321687        2.96075753834223
F            2.07947982362582       -0.04372478488699        4.82541181787491
H           -0.98222160782622       -0.18417398251663        5.20633172275136
C           -5.82360692007091        2.28950764878567       -0.28819028036259
C           -5.18107916331864        3.48985100131663       -0.28679278393312
C           -3.76202127000027        3.57951040037084       -0.23857482120618
C           -3.09512910845032        4.80346471803748       -0.22917142441489
C           -1.70500954674936        4.87989100127201       -0.17419818528417
C           -0.94180908984897        3.68373903346438       -0.13025323157591
C            0.47075578176027        3.74041206301358       -0.06983524707839
C            1.22389379096507        2.54789132900767       -0.02509002747345
C            2.63219502045282        2.60345497807812        0.03904176700310
C            3.28742850799692        3.86284232491059        0.05700398691982
C            4.71228169095285        3.88255631811799        0.12184271735978
C            5.43460796123977        2.73772776121826        0.16709116169872
C            4.80445499974910        1.45798674706048        0.15108758159624
C            5.52926595635754        0.26920082032822        0.20068923754501
C            4.89986856572907       -0.97378244376125        0.18824880412621
C            3.48344332176246       -1.03641887725680        0.11925127751196
C            2.82385658507345       -2.28891423435190        0.11800217065244
C            3.57557260454370       -3.49108467750436        0.18395151935833
C            4.99751781090982       -3.39708805423737        0.24515229035316
C            5.62828540517901       -2.19863583960662        0.24695134280140
C            2.90857092365937       -4.71403800430602        0.18900424498782
C            1.51867932217517       -4.78995259241517        0.13299270234737
C            0.82225813206087       -6.03489068507364        0.14075164339775
C           -0.52996835709962       -6.08891819388782        0.09029135635346
C           -1.32078410404100       -4.90330738248171        0.02710095033417
C           -0.65460568319743       -3.64977072947171        0.01370610722911
C            0.75785091724417       -3.59368437307864        0.06565905943594
C            1.41551374613335       -2.34628740937034        0.05782008712972
C            0.65934971753040       -1.14788451952946       -0.00171723296286
C           -0.74813369811290       -1.20351127545581       -0.05936949072740
C           -1.40729291706505       -2.45855465697435       -0.04817543772009
C           -2.81652158980458       -2.51383609733953       -0.09254219772609
C           -3.47302212604870       -3.77271264481582       -0.08124077937982
C           -2.71255606778871       -4.93883189482556       -0.02264133950161
C           -4.89850670433269       -3.79329165547111       -0.13126703072195
C           -5.62107755080658       -2.64861104292634       -0.18388447706351
C           -4.98935409285441       -1.37021421898284       -0.19135447118718
C           -3.57176391646224       -1.31744376333444       -0.14698283204249
C           -2.91623757201295       -0.06751411381588       -0.15541140061551
C           -1.49965421269858       -0.01172598630188       -0.11344980004450
C           -0.84332273085963        1.23585393216863       -0.10621014634062
C           -1.59909428888900        2.43489181009279       -0.14557647630972
C           -3.00689037573045        2.37822706421019       -0.19637178348154
C           -3.66713889652884        1.12692375744146       -0.19997321518173
C           -5.08293877344856        1.05694483677958       -0.24331001331277
C           -5.71600886851022       -0.18203024618141       -0.24045884615129
C            0.56386300949483        1.29264381803666       -0.04517304259460
C            1.31562077511122        0.10038791243429        0.00386019458980
C            2.73233813277842        0.15712542021647        0.06546008837048
C            3.38726015522572        1.40710840016219        0.08362957321089
C            2.52724848264191        5.02946487683320        0.00982564877765
C            1.13580456792544        4.99464387044205       -0.05277892425907
C            0.34329368843057        6.17973539398999       -0.10136254051970
C           -1.00898316952927        6.12504148612724       -0.15912432061229
H           -5.74610169317596        4.41079763508204       -0.32066643348434
H           -3.66988034847399        5.71801884313955       -0.26332494366849
H            5.20559337589300        4.84350534904888        0.13375725649680
H            6.51325232377713        2.76977960315432        0.21635762442668
H            6.60796333710187        0.31212230749072        0.25345460780395
H            5.56378331671678       -4.31576841959931        0.29193001404244
H            6.70607702028962       -2.14497388141607        0.29538518059887
H            3.48418385533657       -5.62747468447710        0.24069206517297
H            1.40702807182202       -6.94189759677267        0.18994168728014
H           -1.04256421712177       -7.03981224846504        0.09818959368041
H           -3.21540792683865       -5.89555858712957       -0.01437826577380
H           -5.39112550577873       -4.75455231250704       -0.12631094685759
H           -6.69997852956755       -2.68001780473046       -0.22182880816206
H           -6.79455163494653       -0.21580839037316       -0.27603021448380
H            3.03022430258899        5.98607898998034        0.02182040115779
H            0.85450462735047        7.13133424527978       -0.09082150064341
H           -1.59356445879198        7.03274678077546       -0.19517597755388
O           -7.17485157841786        2.17918018902825       -0.32768268821730
H           -7.58981137544696        3.05493434628342       -0.35482409016662
