81
 energy: -157.493006774950 gnorm: 0.000446005660 xtb: 6.6.1 (8d0f1dd)
O           -0.38473504160574       -1.11431054958121        4.84114891818002
S            0.07795663717281       -0.66670052721045        3.43246194139084
O            0.80832561754587       -1.72100715606885        2.81868618254222
O           -0.97989460131852       -0.01661729647074        2.73175454176414
C            1.32179569256144        0.62385087081411        3.91668350367565
F            1.87478913290050        1.16663595360751        2.84573159725296
F            0.72952137618738        1.57792386073602        4.62503218950174
F            2.26895059908522        0.07068096945926        4.66092406918679
H           -1.26911621996315       -0.83129768802831        5.13368751149482
C           -5.77804669213845        2.27681954073379       -0.23882278219890
C           -5.14446080718520        3.47375047290071       -0.21527292198545
C           -3.72134608908807        3.56264845970617       -0.17032196899236
C           -3.05143028287202        4.78401006963948       -0.13983815864832
C           -1.66073420829073        4.85523260094841       -0.09249607134780
C           -0.90203258270475        3.65513114900406       -0.07766272805543
C            0.51179854697298        3.70654051739416       -0.02775158803519
C            1.26193469935264        2.51136253565122       -0.01258967058563
C            2.67095068135351        2.56159764325269        0.04248692036494
C            3.32975830066823        3.81859896128750        0.07777980747740
C            4.75515005907753        3.83349866238216        0.13220102739318
C            5.47411627603158        2.68588275535567        0.15447366536886
C            4.83982132177907        1.40847586712432        0.12379818479564
C            5.56166923236562        0.21709235265141        0.15000823288392
C            4.92834274728622       -1.02360758281323        0.12105398621749
C            3.51098595413685       -1.08099237228066        0.05927382289379
C            2.84847644992380       -2.33139314234113        0.03136888485065
C            3.59722833885421       -3.53693741428454        0.06853864982886
C            5.01986919110337       -3.44806424076682        0.12612703551663
C            5.65390967917792       -2.25146145996721        0.15040404279595
C            2.92742694184406       -4.75825488991368        0.04851419904949
C            1.53702225761985       -4.82918713662395       -0.00182590824618
C            0.83671750686304       -6.07196210651579       -0.01459388037733
C           -0.51613771942266       -6.12143714616629       -0.05699364817546
C           -1.30401887958609       -4.93271651436347       -0.09129349042861
C           -0.63403734735245       -3.68088054605212       -0.08477985311610
C            0.77950675527317       -3.62931335678161       -0.04116504877676
C            1.44042477329245       -2.38362361275243       -0.02975329223278
C            0.68797398595144       -1.18243631246336       -0.06559480993935
C           -0.71992881886595       -1.23308673882939       -0.11268230333325
C           -1.38373005065564       -2.48607325786584       -0.11904193883334
C           -2.79361791149732       -2.53646996503734       -0.15451593065569
C           -3.45359875879025       -3.79366620928542       -0.16272700043815
C           -2.69652389819594       -4.96290904454305       -0.13184100750249
C           -4.87960000298976       -3.80843477369192       -0.20373111313630
C           -5.59857359235700       -2.66080315208316       -0.22997153038023
C           -4.96375907678628       -1.38324623484228       -0.21713699085877
C           -3.54505156443160       -1.33714345644389       -0.18083031567853
C           -2.88508521914864       -0.08999686388306       -0.16801740993214
C           -1.46867812482172       -0.03872653449067       -0.13496664758956
C           -0.80958883535835        1.20702263251976       -0.10508717508598
C           -1.56270453074568        2.40859269125558       -0.11347653053844
C           -2.97214152123431        2.35667979519577       -0.15682815847846
C           -3.63396507773479        1.10589065446104       -0.18286790511799
C           -5.05216044512352        1.04878218175755       -0.22089796054436
C           -5.68601440125318       -0.19189440996639       -0.23908557887096
C            0.59845680221591        1.25818452151819       -0.05303527421808
C            1.34727431628515        0.06320009281990       -0.03402573947279
C            2.76338408822189        0.11506787203316        0.02853935950441
C            3.42222539279132        1.36237826203831        0.06430204873530
C            2.57266163683478        4.98812354840186        0.05818201652421
C            1.18067411560107        4.95846400860846        0.00739688066491
C            0.39195395682292        6.14702506839174       -0.01159750271571
C           -0.96081635117923        6.09784741108995       -0.05883465643981
H           -6.85658658366004        2.22710856488783       -0.27203059170242
H           -5.70904514811025        4.39455255075938       -0.22930671963207
H           -3.62516412750118        5.69987681733277       -0.15232790014119
H            5.25121002885558        4.79281773588743        0.15577875322132
H            6.55316405301146        2.71425184870578        0.19644314129723
H            6.64087666551057        0.25603680183957        0.19520814233997
H            5.58401532247099       -4.36898456396799        0.15030289177476
H            6.73212116387122       -2.20169506376333        0.19403636533750
H            3.50109594325751       -5.67396058734044        0.07734371659257
H            1.41915946957809       -6.98136747682419        0.01196345908071
H           -1.03105488997502       -7.07100634312359       -0.06531847905223
H           -3.20207919604180       -5.91815736506549       -0.13944020361957
H           -5.37564463172249       -4.76791359459052       -0.21389229862460
H           -6.67789402106116       -2.68963009038191       -0.26159477042390
H           -6.76566538592989       -0.23123778943288       -0.26963492657903
H            3.07837253865176        5.94300668006287        0.08370191138589
H            0.90669325293492        7.09639471016689        0.01283676060489
H           -1.54309986460710        7.00756487451250       -0.07267398075365
