82
 energy: -161.574166418295 gnorm: 0.000466510843 xtb: 6.6.1 (8d0f1dd)
O           -0.49531115455517       -0.86958918749076        4.86333664121886
S           -0.08678108735449       -0.78471928739306        3.37044339799060
O           -0.00797277852970       -2.10271548631739        2.84306463439074
O           -0.85204713674455        0.21638678444051        2.70290045327192
C            1.67027411316580       -0.15742130905052        3.52631411553072
F            2.50818100825012       -1.01975540888392        2.97838419845963
F            1.79015846493637        1.01671386920990        2.92625877802241
F            2.00072091942302       -0.00496768893773        4.80435158815472
H           -1.06244659211305       -0.15446450238592        5.20212442990135
C           -5.81608441666321        2.27886773193310       -0.28272140862645
C           -5.17477372371801        3.47980161800857       -0.29319764821234
C           -3.75551388974571        3.57106927942670       -0.25508609897885
C           -3.08984319724340        4.79571416084498       -0.25757767630023
C           -1.69952331660723        4.87387198785432       -0.21110521807450
C           -0.93491030244982        3.67876921483036       -0.16327689179424
C            0.47780046994143        3.73735004760221       -0.10853961276588
C            1.23228634305706        2.54597617830998       -0.05727464736373
C            2.64057069637600        2.60348298167396        0.00528339499895
C            3.29451872355210        3.86366540419293        0.01335661771483
C            4.71932114369462        3.88542584991671        0.07877997685411
C            5.44277359763865        2.74178853676484        0.13457637596467
C            4.81393983132293        1.46130858691901        0.12878208089847
C            5.53992586874733        0.27380625897707        0.19010064554948
C            4.91177769829496       -0.96987606392221        0.18845171098755
C            3.49548531841482       -1.03461019913602        0.11850522766700
C            2.83716821342078       -2.28770349583010        0.12907232792268
C            3.59004353226906       -3.48835259494065        0.20803392408884
C            5.01185179233178       -3.39238470770011        0.26929040694474
C            5.64141846772312       -2.19332787556782        0.25983703283978
C            2.92424173972857       -4.71184430993282        0.22599164245692
C            1.53441569803971       -4.78971935701247        0.17109601672762
C            0.83923565460542       -6.03515057580672        0.19366305186538
C           -0.51300386162550       -6.09092216994995        0.14577137423582
C           -1.30501283609394       -4.90679976778709        0.07054540292218
C           -0.64009645212619       -3.65291160809414        0.04120461527944
C            0.77235893011394       -3.59499059913221        0.09078649669115
C            1.42883822490916       -2.34712701562616        0.06917772588353
C            0.67144447395108       -1.15011539691818       -0.00230346564722
C           -0.73616632351298       -1.20763019051938       -0.05674458308181
C           -1.39402396860300       -2.46315821372838       -0.03155962343717
C           -2.80328004015598       -2.52008865152802       -0.06933510076198
C           -3.45857935803001       -3.77933828116029       -0.04214639675898
C           -2.69686861802446       -4.94411981278696        0.02566815277257
C           -4.88426467488838       -3.80164363732340       -0.08476790659129
C           -5.60816327510683       -2.65812625730803       -0.14389751991190
C           -4.97766697492454       -1.37929632080726       -0.16595015067823
C           -3.55989340824825       -1.32489885415545       -0.13058758864629
C           -2.90570584710672       -0.07450106763512       -0.15301381054775
C           -1.48901484170625       -0.01706977929749       -0.11851340514491
C           -0.83386889586296        1.23120625929362       -0.12318141251914
C           -1.59099046131668        2.42920122529178       -0.16751202535514
C           -2.99892968163582        2.37079677168171       -0.21017281867913
C           -3.65792033897773        1.11888111432640       -0.20147941562553
C           -5.07390188122926        1.04731443875948       -0.23500527012606
C           -5.70574965844383       -0.19217695221358       -0.21943327242544
C            0.57346747701637        1.28991664952416       -0.06675448265378
C            1.32659423982599        0.09882226364485       -0.00916223685256
C            2.74324142332753        0.15757651293795        0.05243677404731
C            3.39685429511203        1.40833110088321        0.06015280450105
C            2.53309843035536        5.02909382290034       -0.04220817251909
C            1.14157898332199        4.99235921950131       -0.10198870100245
C            0.34771852084236        6.17627029301420       -0.15637517507390
C           -1.00473289470849        6.11979062488605       -0.20797610491463
H           -5.74092928119658        4.39999594228407       -0.32870065228669
H           -3.66573013890986        5.70947790079224       -0.29406104385155
H            5.21159937797194        4.84697314961868        0.08337980231130
H            6.52130874259322        2.77540097047125        0.18517313898796
H            6.61850085676627        0.31834783618365        0.24399150606098
H            5.57897038253805       -4.30997213555051        0.32598051899893
H            6.71909773400310       -2.13807532686848        0.30903181697612
H            3.50073328463754       -5.62408494021392        0.28775089268928
H            1.42490579537339       -6.94098204977359        0.25256330126583
H           -1.02474104432438       -7.04209606115004        0.16548607922491
H           -3.19883485299347       -5.90112320713460        0.04643427352836
H           -5.37596641295328       -4.76323850176218       -0.06809687274008
H           -6.68722734476789       -2.69081256739514       -0.17541238435126
H           -6.78446737647111       -0.22718962334652       -0.24769953991900
H            3.03508212837373        5.98629448804794       -0.03785574470628
H            0.85798465239913        7.12841525799146       -0.15447772516106
H           -1.59039493417380        7.02663797163907       -0.24783700929035
O           -7.16748322978881        2.16699533203639       -0.31197947141740
H           -7.58349153623757        3.04213332821825       -0.34289063937729
