96
 energy: -214.388360081761 gnorm: 0.000311028915 xtb: 6.6.1 (8d0f1dd)
O            2.46893801427542        0.23972072616082        5.57860460289590
C            2.76744780236423       -0.95612145241903        5.19003096416059
O            3.37723887285326       -1.80591537744470        5.76625537957475
C            2.19436615504084       -1.21767251305469        3.74906917956515
F            2.99400119963941       -2.09145320213841        3.10133294908585
F            2.19638700927100       -0.08461301342873        3.01754190012489
C            0.77005192451891       -1.84253150183279        3.78684495188854
F            0.81908773141217       -2.92750342350520        4.59129288986122
F            0.42224715463172       -2.29017730502801        2.56950202303961
C           -0.39172784323445       -0.94920843534987        4.32735617339246
F           -0.16366756894145       -0.66060069615049        5.62146244644474
F           -1.50770231657004       -1.70077790007547        4.29193937086672
C           -0.62051288739718        0.38906827380018        3.55680524788108
F           -0.21916026515657        0.25479102711503        2.28776412597926
F            0.14633097918680        1.34002566619135        4.11720599719154
C           -2.09752700752561        0.89730419465419        3.52007609362549
F           -2.11805109298051        2.01994390505441        2.77951020148311
F           -2.87855119450082        0.00059337574975        2.89836662146308
C           -2.71609355829389        1.24055667174924        4.90890275112357
F           -1.97954753789507        2.14012840251193        5.55020201348726
F           -3.93263410012865        1.74121388051498        4.74800860435214
F           -2.81276719135799        0.16564905642648        5.68361020519380
H            2.83428100942478        0.49788773786137        6.45852210042949
C           -5.74212899889820        2.29626513824385       -0.26570739674512
C           -5.10289178996291        3.49827938487865       -0.27383673624984
C           -3.68371983816866        3.59164756402400       -0.29963735481156
C           -3.02003967990405        4.81710018138111       -0.29910096383695
C           -1.62931956136343        4.89738944836756       -0.30994681762160
C           -0.86204876763060        3.70358304470330       -0.32677531866729
C            0.55157905088525        3.76344339245423       -0.31601214873162
C            1.30921909994095        2.57278973628045       -0.31353682898115
C            2.71850039852025        2.63160524561763       -0.27442531708065
C            3.37044237351276        3.89277088391985       -0.25644887511039
C            4.79621685055187        3.91614816494249       -0.21918616526994
C            5.52202652091024        2.77294021881009       -0.18960287653716
C            4.89466732578480        1.49174319944948       -0.19527248979745
C            5.62313019203546        0.30492004025070       -0.15155220406393
C            4.99671159359213       -0.93961032128740       -0.15294864837001
C            3.57973514853795       -1.00565099212669       -0.20936623344713
C            2.92463491239788       -2.26037572742476       -0.20956837883197
C            3.68014849441304       -3.46057127807190       -0.14932433715259
C            5.10191822022970       -3.36278446784649       -0.09662910369956
C            5.72896051314065       -2.16239453811390       -0.09902918794458
C            3.01703826673783       -4.68556125159962       -0.14203465880925
C            1.62689959888909       -4.76585543944912       -0.18322489920742
C            0.93405314217623       -6.01265966242982       -0.16627983085730
C           -0.41886475095926       -6.07041908555235       -0.18847560878787
C           -1.21433633438309       -4.88692692590969       -0.22744394131880
C           -0.55199129926422       -3.63166190156966       -0.25765622298083
C            0.86170397808428       -3.57165227880424       -0.23884052692249
C            1.51581379135641       -2.32159287332852       -0.25910382485035
C            0.75572042692482       -1.12487743071845       -0.30980546286940
C           -0.65341328230486       -1.18489745279005       -0.32877167708194
C           -1.30948237567718       -2.44176822750348       -0.29462021838027
C           -2.71932346952925       -2.50031151766520       -0.28501372608756
C           -3.37166375820440       -3.76088100111284       -0.25424362625192
C           -2.60685930363793       -4.92537542497234       -0.23157916423182
C           -4.79767107977939       -3.78490530671574       -0.24367735843425
C           -5.52419580625341       -2.64161982564721       -0.25026466118789
C           -4.89627903127328       -1.36173033512665       -0.27157362775151
C           -3.47886065735915       -1.30569592083934       -0.29691980990051
C           -2.82759957703727       -0.05385345600782       -0.32702548391032
C           -1.41020405127960        0.00577260248148       -0.35133659132989
C           -0.75635252040829        1.25617110576946       -0.35881879787853
C           -1.51648995257664        2.45339270350814       -0.34327135118389
C           -2.92503271132980        2.39253197618230       -0.32440645345261
C           -3.58197587430503        1.13939908790144       -0.31547765219301
C           -4.99764664717184        1.06559242727372       -0.28255960883513
C           -5.62666891622915       -0.17515131828516       -0.26624595995103
C            0.65297263020177        1.31574203342907       -0.33804547393837
C            1.40866959044146        0.12523727132353       -0.31057901095818
C            2.82481559162747        0.18560865882040       -0.25822125700209
C            3.47690114975471        1.43695739104685       -0.24493761100757
C            2.60602840338991        5.05752452881806       -0.27163161259503
C            1.21347174092350        5.01931302147473       -0.29524811985076
C            0.41674244118386        6.20238606036810       -0.29456411352621
C           -0.93660122278568        6.14430725682230       -0.30001163735254
H           -5.67102348866199        4.41780038946209       -0.25859066825750
H           -3.59824802684316        5.72998312644845       -0.28460397308867
H            5.28709790579751        4.87838696954485       -0.21234213227163
H            6.60130578792457        2.80767508636816       -0.15893476900328
H            6.70241918227792        0.35014078985725       -0.11289068810472
H            5.67095266492664       -4.27991908467418       -0.05285085366342
H            6.80700385781028       -2.10594620512409       -0.05800134018882
H            3.59607471656454       -5.59715500146328       -0.09722111261733
H            1.52224596502555       -6.91811862727485       -0.13158325338829
H           -0.92839972636212       -7.02283886677051       -0.17251153412166
H           -3.10701902209023       -5.88327846718046       -0.21020971288392
H           -5.28764892329027       -4.74741973907449       -0.22666805370482
H           -6.60364996229922       -2.67530488169809       -0.23838968312247
H           -6.70550263613758       -0.21135133834781       -0.24552494343608
H            3.10623448597022        6.01556160485507       -0.25876247311562
H            0.92539594753161        7.15534143460101       -0.28509345490210
H           -1.52467591753341        7.05043283776841       -0.29469105487455
O           -7.09342465485679        2.18220595411893       -0.23925838633687
H           -7.51145742435391        3.05685603894020       -0.23258831959198
