95
 energy: -210.307663376953 gnorm: 0.000608971233 xtb: 6.6.1 (8d0f1dd)
O            2.78715084173605        1.14863219042736        4.04396641055279
C            2.94693292778019        0.01869276038379        4.64655506094175
O            3.49942349535229       -0.21182289719050        5.68191462501538
C            2.28545653872992       -1.15018527454807        3.83022133999073
F            3.17565649446168       -2.16136944006342        3.70504569081412
F            1.96173642650052       -0.77218690900463        2.58137368106833
C            1.02086795064096       -1.72431297263814        4.52766836472778
F            1.36339332261733       -2.17432547018276        5.75056702298271
F            0.56118910426201       -2.78988947575708        3.84571422068111
C           -0.14221575630498       -0.70398402522767        4.73391610345364
F            0.32777856653547        0.34752486487007        5.43622564413108
F           -1.07190297245406       -1.29761492904300        5.50282421512886
C           -0.80821784248908       -0.15569031374046        3.43353594267528
F           -0.90458383345208       -1.13308086771307        2.52163555067232
F           -0.02740575517881        0.80792864514651        2.91790049113329
C           -2.23789475317416        0.44013441874136        3.64148055775917
F           -2.65522214017804        0.91816815928455        2.45817712652088
F           -3.09270681132741       -0.53333628932833        3.99737031996913
C           -2.33230392895263        1.59937764558478        4.68078660827811
F           -1.36744302735396        2.49407733732404        4.50101992003180
F           -3.49745631940729        2.21844529505894        4.55687804717490
F           -2.24184171314488        1.14045162446588        5.92445815238508
H            3.20324351078315        1.92159133785260        4.49551919205196
C           -5.76053701989261        2.25700687129687       -0.55727286228991
C           -5.13397616844475        3.45723941905329       -0.52037333127522
C           -3.71247695629016        3.55378093725446       -0.45239928871515
C           -3.04983929045306        4.77871239529756       -0.41021901580082
C           -1.66056386569757        4.85794214795242       -0.33963621255513
C           -0.89585860529053        3.66223360444385       -0.30785680825595
C            0.51640567144712        3.72139227633049       -0.23089919456926
C            1.27257360632331        2.53058524585844       -0.19654540819543
C            2.67966332027204        2.58848267979039       -0.11094593661122
C            3.33115784026718        3.84926409153239       -0.06920932291712
C            4.75505994755299        3.87183745450284        0.01764212730194
C            5.47896981880760        2.72813575494446        0.07053970327187
C            4.85176549951066        1.44701234126205        0.03760810867512
C            5.57777135488812        0.25969754089039        0.10426216376107
C            4.95105079014815       -0.98455871390135        0.07477081402964
C            3.53745793894243       -1.04938650413471       -0.03865450764480
C            2.88169987105303       -2.30360334234676       -0.06307537338458
C            3.63294807116266       -3.50457638455508        0.02792064632935
C            5.05168433484218       -3.40790887909633        0.13845824426085
C            5.67951997127478       -2.20800418223220        0.15933449000634
C            2.96891891474196       -4.72923917939598        0.00734537367058
C            1.58190564581620       -4.80862033585484       -0.09628078030496
C            0.88849240061243       -6.05499803177697       -0.11964724369493
C           -0.46140979358355       -6.11192165968535       -0.21398944783988
C           -1.25348338197937       -4.92801792434792       -0.29017983194993
C           -0.59047340272399       -3.67290956239109       -0.27547117635241
C            0.82057264660492       -3.61346270951463       -0.18174384385716
C            1.47579711206798       -2.36398876013629       -0.16777623647142
C            0.71963378454329       -1.16658049254743       -0.24585150940204
C           -0.68664945420874       -1.22604344767421       -0.33485934296281
C           -1.34433416463596       -2.48259572270453       -0.34816543951295
C           -2.75237196834413       -2.54030728315396       -0.41957877210616
C           -3.40545039424529       -3.80070460912081       -0.43534792762103
C           -2.64361505564530       -4.96565909496171       -0.37506961031310
C           -4.82984933380823       -3.82309858087675       -0.50957065642627
C           -5.55423706928231       -2.67943043403251       -0.55400022729564
C           -4.92679885344498       -1.39859214897132       -0.53031402144823
C           -3.50945764381376       -1.34511661262838       -0.46781336193297
C           -2.85727214720769       -0.09413629654876       -0.44395790087867
C           -1.44141773135830       -0.03497099693723       -0.37797636808514
C           -0.78932585370063        1.21489425865891       -0.33093593624490
C           -1.54932255386886        2.41243138837306       -0.35565396339094
C           -2.95714205007167        2.35209886146058       -0.42800009049545
C           -3.61171476909564        1.09804083120763       -0.47110390170182
C           -5.02826262953389        1.03312054210123       -0.53231209351087
C           -5.65464472827364       -0.21102028579207       -0.56345643027986
C            0.61760087801855        1.27369378245362       -0.24870136755663
C            1.37205239567018        0.08313099587767       -0.20957507515624
C            2.78558668255762        0.14255599546962       -0.10969374778276
C            3.43649027783834        1.39318246854857       -0.06303576530029
C            2.56852693271218        5.01459704618567       -0.11226391530254
C            1.17781321042759        4.97700012504466       -0.18929992812516
C            0.38341679692914        6.16119521630848       -0.22860308838541
C           -0.96808594674330        6.10451728385715       -0.29902298529847
H           -6.83821432484181        2.20128253102854       -0.60683498487288
H           -5.70382669122906        4.37471423572264       -0.54042301869747
H           -3.62889522191595        5.69104340702191       -0.43316210064991
H            5.24611773435932        4.83358065449482        0.04149107709381
H            6.55652649885707        2.76217532913710        0.13824388611425
H            6.65480792840296        0.30349678749815        0.18463282627534
H            5.61756113171385       -4.32555145473260        0.20673466253919
H            6.75507334209244       -2.15304920069245        0.24433808058021
H            3.54498334612759       -5.64136907734710        0.07522009605352
H            1.47372240072358       -6.96105580905357       -0.05934815424214
H           -0.97106131157913       -7.06429375395036       -0.23032896405573
H           -3.14429678081547       -5.92346853437903       -0.38892340818057
H           -5.32080485577913       -4.78519230995674       -0.52695099889035
H           -6.63260912926325       -2.71424298511217       -0.60758262110864
H           -6.73349406979470       -0.25657084726754       -0.61134975793636
H            3.06819664701817        5.97242630474542       -0.08401839210253
H            0.89189363260268        7.11377766311792       -0.20042794641812
H           -1.55528148603904        7.01073826438174       -0.32760899174602
