96
 energy: -214.388229015991 gnorm: 0.000995565510 xtb: 6.6.1 (8d0f1dd)
O            2.77529134308811        1.15733767989627        4.02968998413550
C            2.95321279241771        0.02759365823565        4.62823541069432
O            3.52379616114183       -0.19997977862822        5.65419158937684
C            2.29018217718634       -1.14507659878723        3.81963780967534
F            3.18054582439070       -2.15571591119756        3.69509787670424
F            1.96088219482137       -0.77256299904521        2.57053514524439
C            1.02837302894112       -1.71843132377625        4.52362868021890
F            1.37608279185027       -2.16511353169359        5.74622961449242
F            0.56765156629359       -2.78596306303460        3.84531867903778
C           -0.13535476152641       -0.69964771409262        4.73107870098086
F            0.33330109986208        0.35097814694463        5.43543276712906
F           -1.06507029299648       -1.29608917253854        5.49819570492133
C           -0.80352440381020       -0.15089706120140        3.43188521528508
F           -0.90238485465300       -1.12899893736743        2.52136773749719
F           -0.02533921569537        0.81243571512894        2.91353569892916
C           -2.23360308078991        0.44378814247010        3.64344956815293
F           -2.64560290703457        0.93989223815755        2.46614935656941
F           -3.08954149632817       -0.53379499736357        3.98128879460941
C           -2.33103593620346        1.58853850174807        4.69776134352676
F           -1.36766099349185        2.48646185099576        4.52889912854174
F           -3.49679569015661        2.20753947881386        4.58104079451073
F           -2.24042382478965        1.11547304491034        5.93564840740180
H            3.19124701990825        1.93230216126463        4.47747200025057
C           -5.78635790989274        2.22726198535597       -0.52205581398921
C           -5.15161584053593        3.43112327783654       -0.48697003405750
C           -3.73357318149122        3.52822765835688       -0.42981715825084
C           -3.07445737646332        4.75562093760570       -0.38743566807211
C           -1.68521250121642        4.83979462956543       -0.32357749219674
C           -0.91491007981147        3.64788353213742       -0.29956323426492
C            0.49688159383643        3.71170839344216       -0.22710696926953
C            1.25722369468273        2.52338127782209       -0.19911487718121
C            2.66410801026986        2.58598489198516       -0.11570504468156
C            3.31131819351276        3.84895367213634       -0.06960772258564
C            4.73503428950011        3.87606723042831        0.01776905653995
C            5.46286577850104        2.73472888079976        0.06780946817988
C            4.84002370742722        1.45158605144074        0.03077538644311
C            5.56987829295446        0.26669365140714        0.09699566337026
C            4.94731051161777       -0.97960230384712        0.06544073711563
C            3.53410429827848       -1.04905929226661       -0.04961224210407
C            2.88228377243918       -2.30536174619477       -0.07278366014310
C            3.63734699212383       -3.50369870515212        0.02097997904075
C            5.05570075104936       -3.40245811871721        0.13192462806862
C            5.67970411388208       -2.20055734953210        0.15167510678619
C            2.97724160269404       -4.73055219083358        0.00435949010829
C            1.59055010725066       -4.81457950934682       -0.09816169332028
C            0.90115144632836       -6.06329220690289       -0.11696728973490
C           -0.44867090486700       -6.12475190861169       -0.20840594662686
C           -1.24469067044211       -4.94348867691889       -0.28504312517610
C           -0.58572443750181       -3.68614089802826       -0.27536144363374
C            0.82534358100205       -3.62201579611698       -0.18583437890535
C            1.47639187304499       -2.37031616570195       -0.17574844714416
C            0.71592809558396       -1.17543208506852       -0.25285503159871
C           -0.69050873966073       -1.23943874455684       -0.33657081317934
C           -1.34372391945786       -2.49836179621097       -0.34661522888510
C           -2.75180342785064       -2.56090861853192       -0.41136744988946
C           -3.40087649223526       -3.82343767419784       -0.42300071206773
C           -2.63484504200073       -4.98590739654079       -0.36428418602836
C           -4.82533708538759       -3.85145899945658       -0.49058082545968
C           -5.55409626965489       -2.71022820407716       -0.53108660395060
C           -4.93014939442250       -1.42832030563076       -0.50971294653402
C           -3.51347957129466       -1.36818923988868       -0.45553300918925
C           -2.86604892478993       -0.11434025120778       -0.43440462554068
C           -1.44975128301269       -0.05068930232219       -0.37573527531286
C           -0.80082062784386        1.20081754861297       -0.32996344235936
C           -1.56458304690220        2.39603249213121       -0.34863518929089
C           -2.97132137546190        2.33115062655542       -0.41376120647049
C           -3.62355895221832        1.07648992015406       -0.45544282659214
C           -5.03819031230133        0.99882530193000       -0.50669318864924
C           -5.66345605366867       -0.24370789726391       -0.53603122874484
C            0.60623285970758        1.26437371181166       -0.25287210966547
C            1.36470667414560        0.07633950942586       -0.21784253439528
C            2.77821442810628        0.14039998129550       -0.12012628674060
C            3.42500890957246        1.39313370985568       -0.07143949925785
C            2.54455998485605        5.01172865112839       -0.10677154374836
C            1.15387976397448        4.96948746630087       -0.18165549614800
C            0.35449667298872        6.15037975221358       -0.21380716438071
C           -0.99707872558888        6.08866698951637       -0.28045505554724
H           -5.72292154019573        4.34881326300405       -0.49840418809409
H           -3.65521879138598        5.66693152085620       -0.40355884166348
H            5.22287741679689        4.83942016299093        0.04538345273288
H            6.54023879641462        2.77224285877650        0.13708859097014
H            6.64657134691129        0.31402786823685        0.17995366224906
H            5.62441885127107       -4.31824381837294        0.20218495994867
H            6.75503772950490       -2.14203149334719        0.23777196573403
H            3.55614052312776       -5.64060655613240        0.07554201874590
H            1.48947438673863       -6.96725581484782       -0.05530267133110
H           -0.95540286335662       -7.07872329323013       -0.22128914279903
H           -3.13260191729459       -5.94526404909736       -0.37401208872346
H           -5.31255785369099       -4.81539694768400       -0.50571228533283
H           -6.63246913583286       -2.74714499155730       -0.57925567970708
H           -6.74169813785527       -0.28347153519794       -0.57623121705082
H            3.04094426638656        5.97120973301415       -0.07452406201022
H            0.85916326513571        7.10497982850277       -0.18281749035493
H           -1.58737744911147        6.99309594141815       -0.30330677764092
O           -7.13682816123777        2.10935020825060       -0.56963514017552
H           -7.55749091960165        2.98259016171681       -0.57158544541252
