94
 energy: -210.159023307765 gnorm: 0.000616964642 xtb: 6.6.1 (8d0f1dd)
O           -3.84562518964600       -0.40036765793394        2.71686504228745
C           -2.86734027837964        0.19859153189009        3.11032385067826
O           -2.35753375280655        1.27686908394488        2.84956834647950
C           -2.03178646990245       -0.61625775235348        4.28803862467151
F           -1.20150843159774       -1.57791929080798        3.77588017831557
F           -2.89361654560758       -1.30198970895612        5.09233302874701
C           -1.21315814991322        0.30655979854515        5.20270584731012
F           -0.75475271902676       -0.39339045455908        6.27435701201947
F           -2.04132717644387        1.23618274993705        5.72715116297617
C            0.00759915366579        1.07097405848548        4.60082776510324
F           -0.35641819575997        2.31532633731090        4.26556428286316
F            0.91429664332589        1.22947608175542        5.60133470745493
C            0.78579002565956        0.46243724205511        3.39573276384916
F            1.57245601862160        1.44790753119267        2.90773770581831
F           -0.02292810683768        0.11002538263222        2.39587678338134
C            1.69179981382188       -0.75879595322641        3.76105701247412
F            1.57542831808064       -1.70112247544538        2.81381634914046
F            1.30901845985941       -1.32399479357519        4.92064793197384
C            3.20496547475710       -0.39835882008664        3.88418574030863
F            3.72430261283163       -0.07236006468889        2.71196231108518
F            3.41115880039700        0.60818938397539        4.72480322500077
F            3.87274603927882       -1.45073863362236        4.34398368263935
C           -5.74391980528604        2.27955591942744       -0.24509620647380
C           -5.10652741852768        3.47423157104766       -0.22871908309918
C           -3.68294285824723        3.55814565682637       -0.23390800498654
C           -3.00880608145696        4.77679276000415       -0.20106136131655
C           -1.61764294530885        4.84429577889593       -0.18953228080914
C           -0.86305122542889        3.64224603022628       -0.21754217549517
C            0.55135463211354        3.68954600244823       -0.19260682196429
C            1.29863113476594        2.49273714794639       -0.21045909984075
C            2.70853561091688        2.53765331781382       -0.16758287615926
C            3.37152194274567        3.79206046024762       -0.11945315221960
C            4.79726747366782        3.80181279747469       -0.08014550910013
C            5.51296688886234        2.65206411435746       -0.07881986971662
C            4.87463311239382        1.37719189214874       -0.11466113729048
C            5.59244999207921        0.18380760511132       -0.09677415374061
C            4.95508068747789       -1.05443914869653       -0.11521688883201
C            3.53735973816325       -1.10746458823147       -0.16587376442481
C            2.87008816324732       -2.35552456906706       -0.16523434592549
C            3.61449773693023       -3.56340663422587       -0.11444118399245
C            5.03780282095924       -3.47897745372966       -0.07519721596572
C            5.67603222152007       -2.28441988388685       -0.07659001639346
C            2.93947106268913       -4.78181664247314       -0.10196749622479
C            1.54831500174330       -4.84862421309924       -0.13118191944664
C            0.84359388873620       -6.08849211303601       -0.11057945210274
C           -0.50985868037630       -6.13286811951679       -0.12936986187637
C           -1.29429788444662       -4.94221601000940       -0.17094260934817
C           -0.62029089570412       -3.69307573721290       -0.20031260181083
C            0.79413082321074       -3.64678341845497       -0.18059762443223
C            1.46018247235222       -2.40333814090487       -0.20292405418543
C            0.71134190726680       -1.19971407404807       -0.24916528228331
C           -0.69827678340232       -1.24545051143706       -0.26968136437051
C           -1.36650370260662       -2.49601646329859       -0.24310862286956
C           -2.77690618044906       -2.54068339263232       -0.24845033797154
C           -3.44065000572875       -3.79530699770365       -0.21383046336316
C           -2.68708473319079       -4.96664394232946       -0.18004214925597
C           -4.86661460778555       -3.80535669539266       -0.20971046998509
C           -5.58098837097440       -2.65513968993591       -0.23091701996671
C           -4.94216978842564       -1.38083335348603       -0.26129075018143
C           -3.52416403235005       -1.33941040953029       -0.27678728455785
C           -2.86047247075866       -0.09504448063807       -0.29667126197434
C           -1.44355184327709       -0.04820738332942       -0.29365777065132
C           -0.77928004282873        1.19576371824407       -0.28261697811843
C           -1.52852123878715        2.39893178451990       -0.26211334378663
C           -2.93805407518497        2.35046603159742       -0.26752426057471
C           -3.60437262690799        1.10285488173435       -0.28806023909626
C           -5.02209841103253        1.04991466581023       -0.26966465485246
C           -5.65975940329625       -0.18786032919653       -0.26366099030758
C            0.63046954384639        1.24241797674240       -0.25745953519920
C            1.37635236167543        0.04453770618664       -0.24661939218045
C            2.79338777415769        0.09140209189455       -0.19916435634035
C            3.45666514102555        1.33640832139942       -0.16496515533150
C            2.61748292327188        4.96328941042213       -0.11090057766864
C            1.22490236919892        4.93844341617906       -0.14237819925817
C            0.43998616155995        6.12914189168991       -0.12439500954151
C           -0.91341415542689        6.08396328755550       -0.14608022306245
H           -6.82328641169615        2.23098687038724       -0.22997356773425
H           -5.66826894340133        4.39682647429733       -0.20163681393921
H           -3.58155539929843        5.69330856061200       -0.17381934594952
H            5.29498222124742        4.75982141566004       -0.04865457788638
H            6.59219887030527        2.67650054235699       -0.04653860220488
H            6.67178272917102        0.21937280308101       -0.05936287624161
H            5.59773726765461       -4.40189094516585       -0.04131134155106
H            6.75449718562783       -2.23751216925529       -0.04400352319135
H            3.50928373918556       -5.69928045192359       -0.06325642061902
H            1.42273556199194       -6.99953116638056       -0.07597421677691
H           -1.03021252077630       -7.07922722706936       -0.11009135780684
H           -3.19798363024592       -5.91887408211752       -0.15329540677246
H           -5.36634745455479       -4.76277550312792       -0.18034434388598
H           -6.66107617305094       -2.67774477409279       -0.21696566923043
H           -6.74024187183199       -0.22326470698863       -0.23804962388789
H            3.12521751759501        5.91656636646227       -0.07319696811606
H            0.95774699839725        7.07637957074456       -0.08849107188791
H           -1.49506034986837        6.99399500395830       -0.12754616714442
