94
 energy: -210.157294508351 gnorm: 0.000224926323 xtb: 6.6.1 (8d0f1dd)
O           -2.91431417182844       -3.18744429738639        3.15250847094397
C           -2.26494234907404       -2.16217612067343        3.11615074355825
O           -2.51264540496638       -0.99914984389025        2.84668676459441
C           -0.67874979780692       -2.37489807000438        3.54365877065905
F            0.16158904435476       -1.98513772597609        2.54484066340296
F           -0.39375324027842       -3.69230592800994        3.74903354927951
C           -0.27300429579041       -1.62642384707515        4.81795321220238
F            1.01629347321186       -1.91515789523534        5.15261022583994
F           -1.01751308594851       -2.08470332865891        5.84977572533668
C           -0.39962330912765       -0.07960625737362        4.84722806869470
F           -1.68500930952381        0.27564636671213        4.97998763100028
F            0.19400828228488        0.32854894685577        6.00264752239606
C            0.23031256426012        0.78242276464501        3.71584022879421
F           -0.10975622889040        2.06507483927346        3.98401125622095
F           -0.29402694184472        0.50758529997325        2.51893133497321
C            1.78344328729534        0.75039694668570        3.56632791785096
F            2.08644011252509        1.58000969154332        2.55063932136006
F            2.21383688414809       -0.47097771921586        3.21227093127069
C            2.62342662930945        1.21559533870129        4.79719336590727
F            3.83012621559017        1.58449980535883        4.38199366691337
F            2.08216015260902        2.25318372358110        5.42177322410171
F            2.78666898643511        0.23627803506954        5.67669519962178
C           -5.81158983548212        2.37820194044871       -0.34398462289524
C           -5.17949272236805        3.57415210152580       -0.40999024369429
C           -3.75613238445272        3.66361039099165       -0.42865338892327
C           -3.08700919173882        4.88461325991940       -0.48065162044573
C           -1.69588519373442        4.95799639598072       -0.48297275204754
C           -0.93563702608096        3.75961229188082       -0.43812424137089
C            0.47881859811514        3.81373138800407       -0.42510675910603
C            1.23071228349215        2.62072034585461       -0.37219940755851
C            2.64026979540613        2.67472605483794       -0.33519602190610
C            3.29772672016521        3.93258349235767       -0.36049492670719
C            4.72311954392667        3.95153555803154       -0.31159306150569
C            5.44335384278203        2.80745505464097       -0.23279136520698
C            4.81056867217427        1.52956759095108       -0.19934315836322
C            5.53346712060928        0.34233998366558       -0.10680312834861
C            4.90167723384891       -0.89865374701344       -0.06685224300853
C            3.48448979531635       -0.96129500028186       -0.12753622813226
C            2.82302526539135       -2.21160482945955       -0.07488903500921
C            3.57292263236425       -3.41110142970103        0.04430063343069
C            4.99555278391413       -3.31764916035956        0.09115989652265
C            5.62835062155100       -2.12153371568505        0.03803032534895
C            2.90323892293612       -4.62994215068303        0.12100220091278
C            1.51240128322931       -4.70475861739763        0.09142595249210
C            0.81305498504831       -5.94276476276459        0.20076594741976
C           -0.54009717109067       -5.99323810532183        0.19323532012165
C           -1.32953357724514       -4.81183671983902        0.07202710933428
C           -0.66101866387279       -3.56582856853616       -0.05081206915830
C            0.75345709063627       -3.51226810355031       -0.03849094517564
C            1.41421973287524       -2.26850348117197       -0.12546345857314
C            0.65959452590920       -1.07187575439709       -0.22784441736553
C           -0.74979227721315       -1.12534125299605       -0.24303735908244
C           -1.41265775621314       -2.37609037474206       -0.15477652877690
C           -2.82234852617925       -2.42674702600358       -0.13432176432573
C           -3.48007793819540       -3.67820106095750       -0.01304469413359
C           -2.72171841351619       -4.84183543998420        0.08307842417271
C           -4.90501856653347       -3.69271191349096        0.02413700050112
C           -5.62546114041166       -2.54853162429283       -0.04455580101227
C           -4.99240646651011       -1.27569744055167       -0.15575615828985
C           -3.57474791726265       -1.23057113655739       -0.20031835926119
C           -2.91678879585557        0.01401887673367       -0.28367648804178
C           -1.50028153495879        0.06636677864447       -0.30451648655965
C           -0.84130231457503        1.31226405160438       -0.35675780443804
C           -1.59568629370902        2.51267977475822       -0.39793848798362
C           -3.00572290122765        2.45884461890334       -0.38745150701152
C           -3.66635954438267        1.20855498739334       -0.32546889975017
C           -5.08437228371812        1.15196359388515       -0.29455579214932
C           -5.71598747361596       -0.08659913234616       -0.21034384485950
C            0.56807149469633        1.36662626048630       -0.34355106490690
C            1.31849247362322        0.17412597084204       -0.27572940652175
C            2.73537693589843        0.23034911925679       -0.22721941316718
C            3.39316351448959        1.47875318091821       -0.25889741536651
C            2.53903570251505        5.09914276123372       -0.42628683695335
C            1.14665308768746        5.06632319735934       -0.45616988210717
C            0.35631565417340        6.25251249677782       -0.51219749280911
C           -0.99697878604969        6.20085372693414       -0.52482180934143
H           -6.89032873888355        2.32562013274354       -0.32367902136358
H           -5.74542774092590        4.49347649431737       -0.44437565446359
H           -3.66301599994520        5.79844819338587       -0.51318912290304
H            5.21730981256302        4.91156111738777       -0.33446666605045
H            6.52208195033475        2.83797053017829       -0.19083423343979
H            6.61223110707212        0.38460006433451       -0.05909216918940
H            5.55861319935492       -4.23553126053485        0.17562549264734
H            6.70632130450375       -2.06799763123305        0.07845692504463
H            3.47550750514545       -5.54158668035655        0.22002482585230
H            1.39570224122269       -6.84685418509637        0.30147461780908
H           -1.05754780492637       -6.93677584592290        0.28875870127266
H           -3.22725981364926       -5.79145247088127        0.19073083694521
H           -5.39696014057454       -4.64942668504358        0.12427497421455
H           -6.70487166876542       -2.57578953992042       -0.00291902022508
H           -6.79578366834471       -0.12749826242922       -0.17468028606763
H            3.04338867639848        6.05461138796807       -0.44803035461583
H            0.87045752681598        7.20183911814763       -0.54100832096637
H           -1.58187886097110        7.10794310130233       -0.56380673834853
