95
 energy: -210.307825851586 gnorm: 0.000264293056 xtb: 6.6.1 (8d0f1dd)
O            2.52299679547596        0.16766201736488        5.57771064260196
C            2.75703101920299       -1.04205296246547        5.18858026572081
O            3.31440689103630       -1.92584383749477        5.76710907645959
C            2.18115180734268       -1.27066102457009        3.74320529555454
F            2.96394556285328       -2.15194672516696        3.08482255572678
F            2.20706075402711       -0.12866735176682        3.02650523865782
C            0.74423194144615       -1.86627288403086        3.77189969385127
F            0.76832722109471       -2.96202160992704        4.56210670208112
F            0.38701518084694       -2.29081734334595        2.54903229212717
C           -0.39607671009257       -0.95237682035971        4.32298660852437
F           -0.15267740783864       -0.67310002529972        5.61652075223698
F           -1.52744863339320       -1.68062304808694        4.29251263022859
C           -0.60134389752892        0.39409222412169        3.55948186770412
F           -0.19759141876283        0.26285686438594        2.29067610415919
F            0.17866253303034        1.32858994031547        4.12933512729507
C           -2.06977540208178        0.92624635351841        3.51938165638909
F           -2.06956595327701        2.04850709450043        2.77791654462175
F           -2.86367857196404        0.04240017729900        2.89555656516268
C           -2.68585889135021        1.28052349181135        4.90635678266665
F           -1.94652308993791        2.18371138307090        5.53907871087415
F           -3.90211674633315        1.78114140518514        4.74385994664558
F           -2.78236853253439        0.21153625793549        5.68953147886551
H            2.89578990038707        0.40378348656207        6.46081050880990
C           -5.72256974000555        2.32469850584530       -0.28541607821109
C           -5.09274132477454        3.52381622118761       -0.29322972647824
C           -3.66965992936082        3.61794188786383       -0.31396248821409
C           -3.00360881825424        4.84155102235253       -0.31290474947474
C           -1.61264478404010        4.91825158932567       -0.32084125798055
C           -0.84942374882496        3.72141274025095       -0.33422009335671
C            0.56480519500766        3.77799423590516       -0.32170610436398
C            1.31971040293654        2.58563531306344       -0.31595578235840
C            2.72918901959786        2.64118687301148       -0.27453639609695
C            3.38392887415409        3.90080384538804       -0.25794155736687
C            4.80967587388500        3.92113598051769       -0.21668323171360
C            5.53271704600127        2.77629564909184       -0.18202600391651
C            4.90247555629435        1.49653566458512       -0.18727872991071
C            5.62813801838802        0.30809825592543       -0.13918335810877
C            4.99897939019849       -0.93503065729091       -0.14104261830086
C            3.58202166877403       -0.99799567027699       -0.20223192065799
C            2.92421220683909       -2.25131547082550       -0.20267075859875
C            3.67670126950217       -3.45317130559832       -0.13726741484321
C            5.09855674484689       -3.35842114795455       -0.08013931050844
C            5.72828971301508       -2.15943770497286       -0.08261649145236
C            3.01064272281844       -4.67651145054421       -0.12817068932414
C            1.62030744240852       -4.75360952655042       -0.17249930849348
C            0.92436937987449       -5.99859283630058       -0.15182204975381
C           -0.42871245335375       -6.05314854910440       -0.17650712540034
C           -1.22115973221263       -4.86795453061322       -0.22174862416615
C           -0.55573211673055       -3.61449919977545       -0.25519229743777
C            0.85814264747784       -3.55781311089926       -0.23416499250486
C            1.51545011823616       -2.30941288388678       -0.25601834408296
C            0.75841449462888       -1.11097154059192       -0.30970951663015
C           -0.65078993251923       -1.16783043459725       -0.33052085111421
C           -1.31029650513265       -2.42284735330189       -0.29578107944054
C           -2.72036820179937       -2.47785443253175       -0.28779157702582
C           -3.37573434552829       -3.73679675760356       -0.25510012972292
C           -2.61398762106474       -4.90293605976150       -0.22791508118680
C           -4.80198804287178       -3.75655256495864       -0.24669861262479
C           -5.52543474514251       -2.61157666630981       -0.25735951688926
C           -4.89506919455552       -1.33225120143696       -0.28054081188066
C           -3.47666622423422       -1.28155245819350       -0.30303931707915
C           -2.82164936514431       -0.03201505032529       -0.33343272616198
C           -1.40445911347469        0.02451445208803       -0.35469105235475
C           -0.74854430993093        1.27383669391761       -0.36209339115577
C           -1.50635462969614        2.47266358126932       -0.34974487402796
C           -2.91627765475498        2.41502914721527       -0.33432039373869
C           -3.57437705591471        1.16185431800479       -0.32561338571155
C           -4.99235865643576        1.09941820923469       -0.29709036278098
C           -5.62144942914812       -0.14348949991363       -0.27989220789382
C            0.66085069700561        1.33004554806042       -0.33957120577678
C            1.41387091017833        0.13776088954548       -0.31011616590361
C            2.82999377416227        0.19494279435542       -0.25460655039304
C            3.48478285080996        1.44484625249768       -0.24114409546003
C            2.62225591795591        5.06734782988366       -0.27767638939717
C            1.22966945052303        5.03234243304751       -0.30309059432715
C            0.43643760024472        6.21790811503998       -0.30581808215483
C           -0.91693642706510        6.16355924064633       -0.31223915483615
H           -6.80127525178888        2.27072185447341       -0.26822689563381
H           -5.66091267681971        4.44242259695476       -0.28223902966976
H           -3.58133083622965        5.75488062212424       -0.30098327318220
H            5.30264212069357        4.88225720642542       -0.21071760956132
H            6.61192693622532        2.80869425835170       -0.14780657935440
H            6.70734401837414        0.35099299014550       -0.09660610772786
H            5.66535625637734       -4.27674061555988       -0.03284887780149
H            6.80629974697338       -2.10535594948165       -0.03819055435758
H            3.58727188723308       -5.58935294785811       -0.07851986609612
H            1.51020327612807       -6.90535228772628       -0.11192386445195
H           -0.94052287462107       -7.00430018101299       -0.15746821746218
H           -3.11643985900088       -5.85962265765323       -0.20419046774180
H           -5.29475542040505       -4.71766200512851       -0.22816467515326
H           -6.60509673469500       -2.64400021979124       -0.24733200753745
H           -6.70123721350416       -0.18648176998475       -0.26197644081137
H            3.12459745680960        6.02421791105922       -0.26660222587023
H            0.94785372782267        7.16932222794152       -0.29824650158949
H           -1.50311579500746        7.07084767813460       -0.30936122419527
