96
 energy: -214.387961943867 gnorm: 0.000247977843 xtb: 6.6.1 (8d0f1dd)
O            1.78342378233639        0.40475289378596        6.78240251419818
C            2.55835296031950        0.42257197000985        5.75151515601781
O            3.59641226899545       -0.14413647984608        5.57616369173582
C            1.96500825617171        1.34772395941179        4.62781405773025
F            2.92210148759603        2.20776232078643        4.21145506191281
F            0.94770269952369        2.10653957665968        5.08645811351625
C            1.48315102724816        0.55234616446095        3.38295385234365
F            2.53463583832267       -0.09096583846063        2.84252082149974
F            1.03068256902407        1.40663640351816        2.44888071717541
C            0.39087423647291       -0.52265276589978        3.67212087201738
F            0.85155682822198       -1.36289761996512        4.62486444557905
F            0.22860866956986       -1.25704000032425        2.56280825209001
C           -0.98838235763091        0.02255112192344        4.15716573668148
F           -1.27550450124932        1.19200213079028        3.56552714788809
F           -0.91235443387462        0.25431826310225        5.47904495728974
C           -2.18744809692562       -0.94382637356321        3.89322604061143
F           -3.28287335966011       -0.38200797857271        4.43793183036215
F           -2.40821966161880       -1.04080185153612        2.57662823305938
C           -2.04572372598846       -2.37902008829620        4.48708893836765
F           -1.63403469552448       -2.34181441319244        5.75043158231093
F           -3.22007974437464       -2.99244576662861        4.45494346995339
F           -1.18157391010093       -3.10993108378543        3.79411856003603
H            2.11139985118302       -0.12479019724001        7.54786001095361
C           -5.78369500706558        2.34044457167555       -0.29751378001724
C           -5.13937297078203        3.53675095167172       -0.38337313790533
C           -3.71998923876270        3.62155127400918       -0.42769293617855
C           -3.05081805154353        4.84148672739167       -0.50902958625482
C           -1.65997547166416        4.91342960460897       -0.54849904713797
C           -0.89841180017254        3.71631557407196       -0.51030527906752
C            0.51509823399889        3.76806991265184       -0.54617183303453
C            1.26694301180937        2.57477030073570       -0.50904597803877
C            2.67670604314642        2.62590709869861       -0.53130067819262
C            3.33473138918286        3.88214300185501       -0.59953137421317
C            4.76086644034714        3.89775083276557       -0.62118067788163
C            5.48191203037199        2.75219225935969       -0.57337954227152
C            4.84915365188001        1.47599411580781       -0.49801062756024
C            5.57313507977535        0.28710956771053       -0.44180493212598
C            4.94153276509323       -0.95194449935564       -0.36033603003406
C            3.52348732031401       -1.01049520671629       -0.33987254781082
C            2.86282328189545       -2.25867226936913       -0.24566893546329
C            3.61452123546204       -3.46068555347878       -0.17097079798119
C            5.03767272837498       -3.37137185962084       -0.20545214773115
C            5.66954499198043       -2.17678356904839       -0.29558418574510
C            2.94642338036935       -4.67867967714643       -0.06484156687643
C            1.55564298235767       -4.75003594837890       -0.02387670279745
C            0.85852083862116       -5.98880139218941        0.09603792330867
C           -0.49416905474734       -6.03771670794321        0.14141046321965
C           -1.28539715053322       -4.85297712027763        0.06814606931914
C           -0.61943676579723       -3.60572892914928       -0.05963723720872
C            0.79425635723727       -3.55443048559778       -0.10228576231861
C            1.45299700965342       -2.31231074734006       -0.21966483942457
C            0.69684149112735       -1.11482760815114       -0.29948569726697
C           -0.71245024602117       -1.16610657507755       -0.25947023279385
C           -1.37270882036539       -2.41554864040187       -0.13971281868220
C           -2.78183295160248       -2.46515793699716       -0.08915088037153
C           -3.43772265752825       -3.71720644537036        0.04211442026354
C           -2.67723845516208       -4.88255265961679        0.11655198791508
C           -4.86299581968070       -3.73219001503728        0.09563248746954
C           -5.58518212186911       -2.58804299080464        0.02925688416261
C           -4.95319416184602       -1.31576088489122       -0.09345068592434
C           -3.53663466626601       -1.26915028620621       -0.15453935163508
C           -2.88064230468740       -0.02404286501932       -0.25978385343257
C           -1.46351255719881        0.02667027554456       -0.31095590064088
C           -0.80442295435081        1.27077835340801       -0.39828423040837
C           -1.55853743961001        2.47153811895297       -0.43282862467945
C           -2.96667585168861        2.41922149070697       -0.38763959566976
C           -3.62906012663881        1.17175736579091       -0.30035768464861
C           -5.04470974769484        1.10717643512758       -0.24791142414915
C           -5.67868021914580       -0.12707538902187       -0.14686409253670
C            0.60435821232462        1.32242845307144       -0.44071953660207
C            1.35532989216071        0.12930105187757       -0.39049988304445
C            2.77300326725817        0.18241882656620       -0.40706261824714
C            3.43043512796459        1.42883795316149       -0.48029745878482
C            2.57550010535656        5.04946923039489       -0.64291395011606
C            1.18280816060884        5.01888773534096       -0.61643665969885
C            0.39170166335902        6.20509222186123       -0.65683278646195
C           -0.96161147275336        6.15484875679743       -0.62576404469482
H           -5.70319978110624        4.45836626115717       -0.41888672618144
H           -3.62434733337291        5.75693786236225       -0.54012539104543
H            5.25595683673462        4.85632039774690       -0.67654182861634
H            6.56163763276517        2.78144642436245       -0.59003121761883
H            6.65310777326047        0.32754475913519       -0.45783988836893
H            5.60405836110747       -4.28982915116552       -0.15541719195581
H            6.74832932772961       -2.12616086387395       -0.31849751171231
H            3.52246114930205       -5.59149327338564       -0.00896503154702
H            1.44323179544394       -6.89538843374661        0.15120564867237
H           -1.00684194173855       -6.98399265000781        0.23371586548036
H           -3.18064693891818       -5.83385116442632        0.21494929875915
H           -5.35609951859783       -4.68832870209759        0.19227002039847
H           -6.66404146701155       -2.61494857646558        0.07178374517574
H           -6.75711873027878       -0.15621844912976       -0.10434674188976
H            3.08049433877198        6.00368796012930       -0.69635792882093
H            0.90496870327401        7.15400632083079       -0.71343475936695
H           -1.54502354176888        7.06349419463678       -0.65739574258499
O           -7.13507109717177        2.23471753367926       -0.25312190272703
H           -7.54925995479057        3.10991232909491       -0.30037041866535
