94
 energy: -210.154379430658 gnorm: 0.000130536837 xtb: 6.6.1 (8d0f1dd)
O           -3.27579692392655        0.69392081085081        2.85569887816589
C           -2.67537170121966       -0.31402380936338        3.17311698544614
O           -2.47684082151048       -1.39810424762964        2.66313824242599
C           -1.92503989680006       -0.15800627806470        4.65687307638793
F           -1.53953718434090       -1.36498272282684        5.16638654613957
F           -2.78453475086581        0.35797770707725        5.58386512042942
C           -0.69907698889290        0.75785474427539        4.61048387676825
F           -0.07891216916283        0.84172108336362        5.82128962676884
F           -1.08914552082084        2.01892725523769        4.33029440984539
C            0.36076791531157        0.38388050872639        3.54514340595365
F           -0.21092976657491        0.45958036552373        2.33404183824600
F            1.31992609995036        1.34331965808562        3.55768283380969
C            1.10128917886559       -0.98198489040819        3.61563644887260
F            1.95597331103482       -1.00310998009984        2.57015819521650
F            0.25201483256565       -1.99983930574844        3.41950771878081
C            1.94464244367270       -1.29638344017392        4.88630228645805
F            2.50322782240999       -2.50765673785898        4.69215654330765
F            1.16822739371798       -1.40501938009203        5.97521722887028
C            3.10535808563791       -0.30134349802239        5.20039815268890
F            3.94394403708222       -0.86774501750354        6.06032305435128
F            3.79760399017182        0.01794567638038        4.11506734759030
F            2.65905606344936        0.81770684518566        5.75565153562977
C           -5.81713562932688        2.34778867860994       -0.33910024971003
C           -5.18320900161564        3.54428876770050       -0.33327896513371
C           -3.75994016806093        3.63186436673055       -0.34174600735136
C           -3.08895193780424        4.85267652088302       -0.32456556321465
C           -1.69784238857763        4.92424212866487       -0.31717624784015
C           -0.93973351838147        3.72400118152772       -0.33172000125176
C            0.47463011308711        3.77537968905007       -0.30476422184351
C            1.22479589553353        2.57999481762008       -0.30163921266031
C            2.63429229623881        2.62945082152584       -0.24645870105133
C            3.29389928839852        3.88632100181744       -0.21302615322414
C            4.71924747257814        3.90017195000017       -0.15948277595925
C            5.43734598959575        2.75230207363488       -0.12961643790126
C            4.80243975591985        1.47522192892152       -0.15066420907286
C            5.52288315859971        0.28387297207200       -0.10816927944372
C            4.88852279188031       -0.95624598697961       -0.12142289012337
C            3.47177288705303       -1.01319576018470       -0.18829488789330
C            2.80809071773513       -2.26310629188182       -0.19170362657894
C            3.55514037357688       -3.46863603959450       -0.12856049846232
C            4.97765789907137       -3.38019332881831       -0.07220618125925
C            5.61255368075296       -2.18398929055267       -0.06868164081037
C            2.88347086020003       -4.68905516181670       -0.12103539670130
C            1.49286363932904       -4.76013507383160       -0.16570854763458
C            0.79160143894819       -6.00199452937595       -0.14957701125097
C           -0.56143973181138       -6.05001552671864       -0.18259680052210
C           -1.34884494435890       -4.86183671794146       -0.23613460927541
C           -0.67864149398224       -3.61075123931439       -0.26342460724235
C            0.73550800178645       -3.56061353637889       -0.22761400068511
C            1.39878159252928       -2.31524102893115       -0.24660177100884
C            0.64662519721160       -1.11379491989894       -0.30753222834285
C           -0.76260331312315       -1.16437253819336       -0.34403533020627
C           -1.42744174843906       -2.41640651366772       -0.31943396367980
C           -2.83663663658137       -2.46531576852593       -0.33452467494918
C           -3.49695828695347       -3.72098178541943       -0.29962949800388
C           -2.74113701336289       -4.89039570417380       -0.25790551200743
C           -4.92292592999190       -3.73541411977262       -0.30156596699049
C           -5.64092596458475       -2.58751042511370       -0.32235999983902
C           -5.00486590911879       -1.31124424318461       -0.34775553909448
C           -3.58665859257457       -1.26638360133805       -0.36298544445677
C           -2.92705641752686       -0.02010582253245       -0.38123555665693
C           -1.51049771089380        0.03063486456162       -0.37811590742565
C           -0.84936147171827        1.27634878686425       -0.37274480073473
C           -1.60194197816651        2.47804964112151       -0.36212469345151
C           -3.01175070915361        2.42576542293508       -0.36384328460542
C           -3.67428608319582        1.17586359387488       -0.37394307040194
C           -5.09197160788117        1.12005824425356       -0.35632574477187
C           -5.72621962310952       -0.11974200604448       -0.34857481503921
C            0.56033702645139        1.32731018736380       -0.33928701953428
C            1.30882676563540        0.13196917324915       -0.30693322212777
C            2.72504307211975        0.18283470412166       -0.24122413567676
C            3.38493247001020        1.42983338661123       -0.21582798557761
C            2.53702489855477        5.05570178264321       -0.22960479409944
C            1.14465936511586        5.02672141501643       -0.26857992834071
C            0.35635770424640        6.21536551786983       -0.26858732455846
C           -0.99692240562560        6.16629154116322       -0.29002876960901
H           -6.89630974817396        2.29651795560532       -0.32337996300262
H           -5.74740079714188        4.46543253831566       -0.31366595426500
H           -3.66384851340152        5.76793920312292       -0.30776329285011
H            5.21459104442011        4.85976806103423       -0.13988152069891
H            6.51612759799065        2.77974560809517       -0.08575155009227
H            6.60167002136537        0.32271168026970       -0.05846335135779
H            5.53943613395673       -4.30166972443760       -0.02916492586766
H            6.69044874767946       -2.13403174528402       -0.02277192165687
H            3.45521960762096       -5.60494740799109       -0.07319173627560
H            1.37316361868142       -6.91117712948200       -0.10602205407858
H           -1.07915440217094       -6.99794610482323       -0.16563300141831
H           -3.24945616874209       -5.84419861767013       -0.23053591556687
H           -5.41999041311943       -4.69445319760072       -0.27552968400682
H           -6.72119537163979       -2.61334517984543       -0.31238129742921
H           -6.80678771192587       -0.15858313144130       -0.32693943720343
H            3.04238142429450        6.01065368165151       -0.20368024777544
H            0.87170834868911        7.16432145593869       -0.24514089630369
H           -1.58085400436816        7.07497450740898       -0.28346689701632
