95
 energy: -210.307370789004 gnorm: 0.000224418684 xtb: 6.6.1 (8d0f1dd)
O            1.78679372216506        0.35798890661954        6.77311084229631
C            2.55605682406923        0.37938900685208        5.73796487473817
O            3.59453597652036       -0.18448361891004        5.55614864513682
C            1.95397626466031        1.30514035164535        4.61948628449664
F            2.90797588390827        2.16439545522818        4.19468059131049
F            0.94129685572115        2.06448575738034        5.08752779813884
C            1.46032740040179        0.51057494498445        3.37882268642559
F            2.50558333627928       -0.13632128105650        2.83075529914779
F            1.00330990603815        1.36569578730152        2.44754737647688
C            0.36662322951026       -0.56068666287354        3.67589210012608
F            0.83186086025844       -1.40452179320397        4.62286746652168
F            0.19235889219961       -1.29212769116960        2.56617406460928
C           -1.00666705301207       -0.01094822392897        4.17290914549353
F           -1.29007931541666        1.16455969455954        3.59151862702598
F           -0.92183946580642        0.21042215669561        5.49590298548338
C           -2.21310504483770       -0.96772131380337        3.90775127318132
F           -3.30163437023458       -0.40518310336972        4.46547565969762
F           -2.44351953844978       -1.04943514090587        2.59169061739895
C           -2.07667286188609       -2.40933606117209        4.48709217323537
F           -1.65898758604156       -2.38548436043246        5.74881258341753
F           -3.25490969316435       -3.01534711850170        4.45482211486338
F           -1.22023795908588       -3.13957730671498        3.78405132015759
H            2.12068528644997       -0.17192590419031        7.53570289040724
C           -5.75296185810714        2.38492761654483       -0.30810887466454
C           -5.11646648898396        3.57703220504991       -0.39980342137266
C           -3.69316904640582        3.66033836624105       -0.44704053815768
C           -3.02000535429608        4.87707746683360       -0.53451220082074
C           -1.62888859737264        4.94330648659437       -0.57547007181240
C           -0.87306488996569        3.74235746895927       -0.53158629617198
C            0.54113227859936        3.78869121468780       -0.56752813307902
C            1.28863589494684        2.59288878593043       -0.52343021458876
C            2.69874603236464        2.63872333860045       -0.54457099036532
C            3.36130554517398        3.89208873635437       -0.61937643170844
C            4.78755587577164        3.90261216569458       -0.63888518958653
C            5.50440797997270        2.75478859406084       -0.58253457025141
C            4.86700159950368        1.48130453986119       -0.50110174935313
C            5.58667869715134        0.29013386051550       -0.43705916742294
C            4.95054636672932       -0.94628368124920       -0.35128905156524
C            3.53224063111816       -0.99970701906288       -0.33349975696417
C            2.86706529508589       -2.24515743860768       -0.23530554933229
C            3.61423908900147       -3.44960579659555       -0.15467681751423
C            5.03780312159951       -3.36547135269781       -0.18691150322852
C            5.67407451808655       -2.17347657563376       -0.28015985074803
C            2.94148273599008       -4.66471051495858       -0.04533737164525
C            1.55028071116835       -4.73088303231460       -0.00626477193145
C            0.84842224854591       -5.96660471119921        0.11691833887654
C           -0.50455827995314       -6.01032604996635        0.16105390783017
C           -1.29121559085346       -4.82297922834838        0.08292006656759
C           -0.62052389178860       -3.57877942926780       -0.04892497639158
C            0.79342937237377       -3.53281695899787       -0.09007941137103
C            1.45707581853683       -2.29365135901463       -0.21129923188887
C            0.70557872269890       -1.09370223314532       -0.29689664423686
C           -0.70391654441385       -1.13978858301083       -0.25820037901998
C           -1.36926658184391       -2.38611196888384       -0.13428754216827
C           -2.77865070450007       -2.43014934138103       -0.08446336072511
C           -3.43922242945142       -3.67919665152289        0.05154814525149
C           -2.68338548084728       -4.84700150890531        0.13068678200644
C           -4.86470954958877       -3.68772472230860        0.10504212107457
C           -5.58216848482008       -2.54108432219694        0.03455474541738
C           -4.94596192808216       -1.27068579934318       -0.09279785036178
C           -3.52849518916673       -1.23161211091118       -0.15422845907932
C           -2.86712882922368        0.00993106236117       -0.26377283733611
C           -1.45021970935966        0.05546864599818       -0.31487394440446
C           -0.78731543388530        1.29720355639809       -0.40767363386694
C           -1.53742864181988        2.50036141408610       -0.44803665015610
C           -2.94695903087176        2.45342042845319       -0.40205302827661
C           -3.61221444298953        1.20724382096195       -0.30902173234034
C           -5.03005982854677        1.15622986967198       -0.25576367064229
C           -5.66572967629397       -0.07899100311022       -0.14990842860065
C            0.62164714303195        1.34335906558769       -0.44945260100156
C            1.36834560959900        0.14770062975138       -0.39288126154673
C            2.78619531152848        0.19557934287225       -0.40756643221200
C            3.44812555799167        1.43927078628424       -0.48593668210017
C            2.60632579761679        5.06192598129867       -0.67053220927350
C            1.21353536839408        5.03661008081442       -0.64456983957285
C            0.42754447659764        6.22611603369568       -0.69155751688069
C           -0.92583217921476        6.18167489647194       -0.65956333155534
H           -6.83158740694178        2.33965651299019       -0.27141403882534
H           -5.67898392653797        4.49841045733209       -0.43768753132523
H           -3.59173420789663        5.79361999254393       -0.56924035789014
H            5.28607517816057        4.85905079227464       -0.69909229734320
H            6.58423418966952        2.78016232036267       -0.59691387904736
H            6.66679333939040        0.32667606875257       -0.45084122268891
H            5.60080545528596       -4.28571951768855       -0.13218373294203
H            6.75305573920768       -2.12677500179961       -0.30075954636802
H            3.51400005186817       -5.57947237157468        0.01447670993987
H            1.42962009149026       -6.87519743541018        0.17589854447415
H           -1.02077266885632       -6.95440012770974        0.25624594442064
H           -3.19038898256001       -5.79607596485108        0.23248474692759
H           -5.36192575087507       -4.64141324972509        0.20528119227338
H           -6.66123603797751       -2.56502466106563        0.07750708408864
H           -6.74510006100511       -0.11334549293551       -0.10584036880872
H            3.11473246156246        6.01392619734911       -0.72948743599069
H            0.94485979507104        7.17240425154590       -0.75352538239167
H           -1.50607994585317        7.09209968060281       -0.69554677799669
