95
 energy: -215.344859456731 gnorm: 0.000444636016 xtb: 6.6.1 (8d0f1dd)
O           -0.37083683848208        1.79138841594644        3.79121027025502
S            0.80168279394998        2.64641412548785        3.87224733002643
O            1.03282088782778        3.23646566604713        5.17008400434592
O            0.99201592183986        3.52854109586458        2.75344776691919
C            2.18831557606083        1.41393104273091        3.70540721466658
F            3.35048877967061        2.09134867229467        3.82015710415075
F            2.15862243147017        0.92641187942447        2.45469016645564
C            2.17367108315258        0.26582169212727        4.71646557108976
F            2.74108271564004       -0.84612961562141        4.18415150243953
F            2.94690844595071        0.60235454078804        5.76851356570243
C            0.79762590252899       -0.15847355814851        5.30146667040240
F            1.06127145723901       -1.14112324892700        6.20285108470616
F            0.27710195937202        0.82418818769329        6.04067527061592
C           -0.19304568575572       -0.78697747690542        4.26890867876223
F            0.10063560930625       -0.46470647609150        3.00133900132732
F            0.01328320664037       -2.12577142837568        4.31073456673570
C           -1.71192171701128       -0.58385568573552        4.57508930577714
F           -2.10243885653479       -1.62908242614248        5.34047074424293
F           -2.02910564590330        0.50372498727440        5.28052806242417
C           -2.57131912491065       -0.61328808255484        3.27873945996256
F           -2.45330385419602        0.48494989514945        2.55715476423115
F           -2.24977366844738       -1.66182961059175        2.52789860153411
F           -3.85698207251328       -0.74533848840791        3.60139763891042
C           -5.77458111679866        2.17322240774436       -0.09987257574600
C           -5.13897318028974        3.36791412474077       -0.04623333326699
C           -3.71530422741565        3.45661144448711       -0.06064689305630
C           -3.04315561815970        4.67542434428238       -0.00167779132064
C           -1.65195158633262        4.74690301446398       -0.01923074275898
C           -0.89402193504294        3.54956836791857       -0.09893696112008
C            0.51914994274020        3.60138947147207       -0.12110998176317
C            1.26779052202920        2.40870042733721       -0.18625810933262
C            2.67725180225231        2.45795990218009       -0.19080365605586
C            3.33747514933848        3.71242902849041       -0.12912310289414
C            4.76373612711329        3.72579811455723       -0.12499272554694
C            5.48317518313359        2.57926995513548       -0.17164630963582
C            4.84758024390032        1.30360792597937       -0.22510175392962
C            5.56927888566477        0.11210636070714       -0.25839850775593
C            4.93524129201500       -1.12774017295336       -0.29349374839082
C            3.51654734375970       -1.18343811805017       -0.29856347260531
C            2.85343035646884       -2.43391169347767       -0.32223964925376
C            3.60186301796031       -3.64022549409678       -0.34654425631004
C            5.02555959316695       -3.55220516013969       -0.34615949458950
C            5.66026635396988       -2.35607168142016       -0.32055080958083
C            2.93046458639766       -4.86079966348195       -0.37156339155446
C            1.53910772857168       -4.93154554565631       -0.37359367215470
C            0.83783868115412       -6.17349055725346       -0.40199067382896
C           -0.51564236966887       -6.22194217453511       -0.40527076870798
C           -1.30396731488027       -5.03329431388396       -0.38063722966280
C           -0.63364090339172       -3.78206360219379       -0.35353564508839
C            0.78093377014178       -3.73131063705768       -0.34893782079276
C            1.44332530162909       -2.48537168130030       -0.32260040211846
C            0.69100260862236       -1.28306960748717       -0.29745406893871
C           -0.71831764317240       -1.33422605329754       -0.30043095580134
C           -1.38322215445174       -2.58692140251170       -0.33127857939038
C           -2.79327420144506       -2.63687962436466       -0.33168068354397
C           -3.45366221869673       -3.89316519245082       -0.35390525258628
C           -2.69673832780986       -5.06243603847518       -0.38090323086396
C           -4.87999471515905       -3.90730219193903       -0.34310221333870
C           -5.59873765250059       -2.76013743458233       -0.30357514135272
C           -4.96340202032809       -1.48326777418836       -0.27346758968443
C           -3.54442719837852       -1.43747071832406       -0.29564201693092
C           -2.88395371818180       -0.19055342396113       -0.26250438232867
C           -1.46598664086206       -0.13910302173395       -0.26559532945110
C           -0.80503074400678        1.10567675718524       -0.21686742596297
C           -1.55699227469736        2.30564220558319       -0.15219407717146
C           -2.96677933773022        2.25313278111939       -0.13780777264161
C           -3.63131559919932        1.00481347274416       -0.19712837597037
C           -5.04968196205293        0.94704889243837       -0.17356171765931
C           -5.68439617403703       -0.29264829452960       -0.21576847363271
C            0.60368687376369        1.15689484936574       -0.22767080349375
C            1.35157803458896       -0.03767681595780       -0.27115716721104
C            2.76882410451457        0.01272931804442       -0.27532217229590
C            3.42871961950716        1.25936756733264       -0.23702317312080
C            2.58060581633350        4.87974926493024       -0.06759813712732
C            1.18885221760968        4.85004485991271       -0.05884209710122
C            0.40177955273936        6.03585026366368        0.02163715713811
C           -0.95120637404906        5.98736092349980        0.04075249472877
H           -6.85330756038901        2.12356240198065       -0.08455660214013
H           -5.70088245002335        4.28846681500975        0.01189420866158
H           -3.61512422711752        5.59049099961774        0.06174725265472
H            5.25878482774413        4.68478765319736       -0.07790207329440
H            6.56293834330187        2.60763858309122       -0.16306514898372
H            6.64929931554094        0.15240412377134       -0.24930322737770
H            5.58970733091921       -4.47287427625727       -0.36603435534767
H            6.73909347667795       -2.30508863369597       -0.31891501850526
H            3.50449800194502       -5.77609217619182       -0.38976685807470
H            1.42074850583235       -7.08238433943903       -0.42059400102236
H           -1.03158513852512       -7.17038034676603       -0.42638827053978
H           -3.20336473805640       -6.01665488035027       -0.39893443081741
H           -5.37663924890167       -4.86600320557073       -0.36308917435487
H           -6.67822636523513       -2.78671886611626       -0.29042390040924
H           -6.76406347663261       -0.33101998477252       -0.19533123832366
H            3.08707672632002        5.83331305010146       -0.00954106631535
H            0.91907928264922        6.98288755873737        0.07559119611467
H           -1.53299841317466        6.89521246426290        0.10879002690812
