97
 energy: -219.564440116841 gnorm: 0.000942414058 xtb: 6.6.1 (8d0f1dd)
O            3.88752381504721        0.67216972762060        4.22242487027404
S            2.76351463546296        0.30649696222913        3.23575274823048
O            2.40715701877598        1.44939686577498        2.47599428035559
O            3.00848385467549       -0.94816987980607        2.60845839044746
C            1.33079244435144        0.06630583684544        4.44036771113095
F            0.89121893654841        1.28429311691915        4.78903370809530
F            1.76272282919937       -0.53788014599699        5.55617773558160
C            0.25309469893132       -0.77105489916043        3.74693976654138
F            0.24239696832906       -0.46214532723940        2.44001533276139
F            0.61367154723566       -2.06417974675902        3.83220906644478
C           -1.19874059686873       -0.65901249795890        4.32343747477820
F           -1.91204580925455       -1.68735058124784        3.83606034942771
F           -1.14016253679794       -0.83303741651990        5.65613999409483
C           -1.92255228078905        0.70468891188013        4.04489986865780
F           -1.77259662006268        1.48390840414740        5.13161793301617
F           -1.34704209632887        1.35738369906784        3.02364103004798
C           -3.45090991908444        0.59027502112467        3.73395182092089
F           -3.86464414451794        1.78135511496855        3.26871979696029
F           -3.67635949897201       -0.31026736659083        2.76968301985758
C           -4.33079245727777        0.22984636302064        4.97080037942721
F           -5.57974278393607        0.01284519294868        4.58555949133150
F           -4.33736272137517        1.21553957190937        5.85854118750376
F           -3.88913190408161       -0.86876798320195        5.57644991534616
H            4.55232164399099       -0.00772390383282        4.44181243555059
C           -5.47971689228314        2.24897022587091        0.27826669739076
C           -4.82493724533624        3.44200438117824        0.30746571027458
C           -3.40852797825129        3.52155495492416        0.20396303617610
C           -2.72911959240330        4.73801246817680        0.22850500904167
C           -1.34094770261728        4.80431348871501        0.12977073890170
C           -0.59209709412007        3.60483806361686        0.00594554946782
C            0.81946416420906        3.64953161989410       -0.08195448231314
C            1.55875804038370        2.45353028479449       -0.19412985521861
C            2.96686586715723        2.49643526854367       -0.25295821107434
C            3.63554985806939        3.74765996823772       -0.21151647567008
C            5.06120495245207        3.75484753509721       -0.25945821706952
C            5.77233712723624        2.60418243018897       -0.32634163802061
C            5.12805034532435        1.33163190197182       -0.35684583644240
C            5.84225849075009        0.13648575583228       -0.41052359916656
C            5.20003175300795       -1.09971704729540       -0.43433794920519
C            3.78173090984512       -1.14780175975035       -0.40605640207407
C            3.11200369850442       -2.39391647631299       -0.41719942229152
C            3.85317130855956       -3.60377499768806       -0.46262826133444
C            5.27683233048791       -3.52395535953370       -0.49920726353806
C            5.91829913262845       -2.33124296533479       -0.48459731287625
C            3.17561322763366       -4.82127882354721       -0.47071458017579
C            1.78468307189333       -4.88532346933149       -0.42789608768373
C            1.07686567965111       -6.12394539482051       -0.43336009771739
C           -0.27590042373774       -6.16631561775438       -0.38184402337342
C           -1.05653144924416       -4.97403190103989       -0.31662272525561
C           -0.37959049010458       -3.72595621820925       -0.31729901097422
C            1.03407820758045       -3.68129338061839       -0.37493073260139
C            1.70279347539760       -2.43852221831618       -0.37549648742584
C            0.95773079840553       -1.23322942038867       -0.32289810906271
C           -0.45088275495813       -1.27780679695408       -0.25786430605941
C           -1.12199492634980       -2.52738168311317       -0.25311156276507
C           -2.53045995025129       -2.57100630700133       -0.17462962465006
C           -3.19724186135077       -3.82435865618453       -0.17597513394907
C           -2.44792415082764       -4.99681446339762       -0.25059813512134
C           -4.62130248023614       -3.83292404231238       -0.09719348954521
C           -5.33170987608301       -2.68289379338166       -0.00980841517441
C           -4.68835380320163       -1.41079519629063        0.00533924944801
C           -3.27323221619347       -1.36920670810093       -0.08716608368638
C           -2.60600146948578       -0.12523739938118       -0.07736424957565
C           -1.19064240478890       -0.07983408993867       -0.16763952535310
C           -0.52062766919253        1.16113571952037       -0.14491335872294
C           -1.26258754342780        2.36380196901294       -0.02504794859831
C           -2.66864813175569        2.31768177320435        0.07057088073769
C           -3.34229289240482        1.07379701603169        0.03960445846345
C           -4.75569543124542        1.01386716183483        0.14074852171665
C           -5.40076984427762       -0.21862914350602        0.11617855575992
C            0.88647114271216        1.20582238406514       -0.22458377159152
C            1.62559060841571        0.00856987993051       -0.31085448858974
C            3.04170077500825        0.05199268930598       -0.35530736268149
C            3.70920309195091        1.29434690668928       -0.32788257665167
C            2.88820227126547        4.91976925577407       -0.11873806585385
C            1.49712887837212        4.89663158189757       -0.04908505956929
C            0.71799498631736        6.08643419021882        0.06181535553185
C           -0.63307455137468        6.04264198102809        0.14845688087567
H           -5.37754051397803        4.36481517101051        0.41244459415661
H           -3.29269010333423        5.65473048003425        0.32675114803416
H            5.56367560119909        4.71078065544218       -0.23591865721862
H            6.85175109421191        2.62658608190083       -0.35809302648694
H            6.92227607752981        0.16949371360767       -0.43444750098489
H            5.83486260276858       -4.44795588611343       -0.53783219353907
H            6.99717592307301       -2.28750882128914       -0.51203422471965
H            3.74360490952192       -5.73994742442655       -0.50890873355124
H            1.65338487981578       -7.03608885727552       -0.47992657426843
H           -0.79677612316575       -7.11248034520920       -0.38660967141474
H           -2.95938107655821       -5.94872983131040       -0.25260796164181
H           -5.12303928493844       -4.78931542024989       -0.10606546113501
H           -6.40956347870240       -2.70480639529248        0.05303969690005
H           -6.47724752168621       -0.24327856774185        0.19321217032723
H            3.40102615213931        5.87087459627318       -0.09082446485175
H            1.23863739004271        7.03272683553871        0.07775367548665
H           -1.20760200943710        6.95328464549805        0.23480544882124
O           -6.82855948998582        2.14794875922761        0.37892696104968
H           -7.23143121117016        3.02579496945207        0.46187018585835
