96
 energy: -215.483711310350 gnorm: 0.000835365598 xtb: 6.6.1 (8d0f1dd)
O            3.92187171309430        0.63178445786126        4.23722050220601
S            2.79662054018322        0.28107426430908        3.24708624459550
O            2.46134308569877        1.42837734708891        2.48382064327017
O            3.02668822883428       -0.97666285009958        2.62045766119952
C            1.35543080113130        0.06368553203239        4.44580888262727
F            0.92624462124568        1.28854902732426        4.78181386026505
F            1.77467821067315       -0.53626264406028        5.56867701979560
C            0.27526305543723       -0.76928548665450        3.75099235546739
F            0.26816099943064       -0.45881365819708        2.44443893252555
F            0.63293163482518       -2.06344297812454        3.83659845727463
C           -1.17883953843640       -0.65663957358946        4.32087281516857
F           -1.89473139225719       -1.67302001194832        3.81219915854460
F           -1.13071007767712       -0.85025910573506        5.65117392418381
C           -1.89357625346248        0.71368115357427        4.05712787545552
F           -1.72278455184513        1.48832070606144        5.14357881748499
F           -1.32604269436387        1.36353255834636        3.02927746692423
C           -3.42602299932550        0.61328822482042        3.76441234325366
F           -3.83899858244116        1.81823018232017        3.33509221622316
F           -3.66565287487753       -0.26047359624565        2.77869379116069
C           -4.29603116231233        0.22276666695736        4.99873450303090
F           -5.55589735140793        0.05982103980825        4.62388794439643
F           -4.25932811710068        1.16492850984749        5.93120358145924
F           -3.87937043902951       -0.91503341350930        5.54592020787833
H            4.57394923581662       -0.05724709418860        4.46507099016611
C           -5.46093238918678        2.28010037474930        0.28118574655536
C           -4.81367967703601        3.46932038263479        0.31565421911881
C           -3.39315488482138        3.54789595894294        0.21478756717532
C           -2.70967474007536        4.76149790137562        0.24293483892521
C           -1.32127867686187        4.82269367903640        0.14398262254914
C           -0.57803124245381        3.61964757387713        0.01697481623942
C            0.83401505402219        3.65956366181434       -0.07322227166670
C            1.56912194268000        2.46119555164479       -0.18819561656243
C            2.97727674699903        2.49942077048914       -0.25208810170988
C            3.65003843448271        3.74840828210034       -0.21374743628670
C            5.07544296722698        3.75124615781138       -0.26968377549072
C            5.78255673420282        2.59822845690524       -0.33899906848404
C            5.13419118080766        1.32770120715743       -0.36429149344892
C            5.84444854797732        0.13011352610495       -0.41809114375902
C            5.19820238260884       -1.10402083027437       -0.43785973246945
C            3.77979454541473       -1.14747288702913       -0.40634934712882
C            3.10601333238706       -2.39140773924881       -0.41582252124392
C            3.84294816628727       -3.60378143953857       -0.46233715682528
C            5.26688888550054       -3.52863780552331       -0.50073414581682
C            5.91231542745298       -2.33805162664952       -0.48786947875889
C            3.16118602396590       -4.81891127303261       -0.46982976874983
C            1.76999890182777       -4.87824070237535       -0.42515177875931
C            1.05785950437761       -6.11432711042399       -0.43006014569561
C           -0.29506783640654       -6.15201825162457       -0.37682980251668
C           -1.07146417786734       -4.95713059788778       -0.31060052013532
C           -0.39018379356722       -3.71149624958326       -0.31178323973963
C            1.02362597002149       -3.67168338476227       -0.37089278588824
C            1.69676563173464       -2.43129495960282       -0.37214904249472
C            0.95604048340613       -1.22351882374813       -0.31843611119107
C           -0.45259178821081       -1.26335826525043       -0.25193347105256
C           -1.12837151311243       -2.51034283005463       -0.24700716086748
C           -2.53703185300740       -2.54893177581311       -0.16807120754398
C           -3.20807337510954       -3.79998260304498       -0.16885481721802
C           -2.46310498279844       -4.97495201320024       -0.24345808235097
C           -4.63231490958364       -3.80273400297608       -0.08997222420052
C           -5.33844062183344       -2.65017613444231       -0.00402572623108
C           -4.69131608448194       -1.37930389041465        0.01055390740934
C           -3.27525448131602       -1.34462791958627       -0.08116296464286
C           -2.60305898444880       -0.10370877985583       -0.07116986069000
C           -1.18794121163502       -0.06298572821588       -0.16087488613460
C           -0.51443128153981        1.17608043743180       -0.13734611063264
C           -1.25261334692751        2.38098397947330       -0.01581123714805
C           -2.66007605288170        2.33967258927905        0.07946294302534
C           -3.33645370298377        1.09669052947253        0.04580678931770
C           -4.75213562654635        1.04977235678394        0.14553290055554
C           -5.39854550416108       -0.18417043507501        0.11953999557569
C            0.89276223703053        1.21582769851163       -0.21829226733142
C            1.62779584295214        0.01612767141786       -0.30685043594490
C            3.04388425931829        0.05480204154363       -0.35450794562263
C            3.71543944142886        1.29497163012143       -0.32987716087768
C            2.90688320570066        4.92290226267888       -0.11634513642596
C            1.51609335415243        4.90429067731846       -0.04067477981374
C            0.74211409128175        6.09710906808190        0.07559229019696
C           -0.60877998531546        6.05840157241244        0.16529195683003
H           -6.53739549205303        2.23766350791004        0.35850250872375
H           -5.36534959855937        4.39177084945344        0.42056445302687
H           -3.27146140226034        5.67916410679115        0.34351216139392
H            5.58091113454848        4.70562960885165       -0.25036572852656
H            6.86181707350798        2.61725833511013       -0.37678835090796
H            6.92446539260077        0.15964451800300       -0.44534490278118
H            5.82184783866107       -4.45446804961309       -0.53946986058738
H            6.99129627179096       -2.29794822598780       -0.51671109417017
H            3.72588809530187       -5.73953432117114       -0.50925709336059
H            1.63106561896149       -7.02850066278558       -0.47765605790581
H           -0.81912440477828       -7.09643094689146       -0.38118908653048
H           -2.97781935474425       -5.92515970974251       -0.24498571823354
H           -5.13779438852680       -4.75719912533968       -0.09791321136362
H           -6.41652757201665       -2.66962978353390        0.05824698646840
H           -6.47615806693299       -0.21459262691261        0.19437517978327
H            3.42284035005306        5.87228606182104       -0.08993941333409
H            1.26666797423892        7.04114276501190        0.09305920929336
H           -1.18006213332775        6.97060050114292        0.25575819039340
