95
 energy: -215.355148334543 gnorm: 0.000621621601 xtb: 6.6.1 (8d0f1dd)
O            0.22556232521518       -0.26436518584545        2.58336507854270
S            1.66703486094137       -0.20950415831713        2.72186883888486
O            2.28158206977644        1.06329784888790        2.45093449824812
O            2.38520200583503       -1.38224668949344        2.30766483920028
C            1.87026291994181       -0.29803705913464        4.59288958870098
F            3.20027855120362       -0.21583827069964        4.83606045581152
F            1.49635140624193       -1.51802534484689        5.03683743093737
C            1.16603656815383        0.80226728442678        5.38945541162479
F            0.89339911767020        0.38797900942795        6.65434316883521
F            2.00827194594050        1.84628621015600        5.52377288539443
C           -0.15721956689171        1.37360115280462        4.80855242075987
F           -0.55735880227494        2.35056733782254        5.66404359845545
F            0.05840784487759        2.01784771196878        3.65839032009564
C           -1.33176867083426        0.34750107626187        4.76120381477114
F           -0.91115263258688       -0.92385024707881        4.70547974463325
F           -1.96239266412149        0.43327645957626        5.95641894011650
C           -2.42177149979642        0.61566016225003        3.68017891267875
F           -3.29754961531710        1.50392036020732        4.20171760037647
F           -1.97823502035309        1.16637423086836        2.55250862599266
C           -3.21283022441702       -0.68181212388634        3.33976385289590
F           -2.50700530149498       -1.53996509551837        2.62400667002030
F           -3.61101159442199       -1.29825443650717        4.45194072511936
F           -4.30698196165967       -0.37172902388227        2.65522448978344
C           -5.56433320888383        2.26242522611531       -0.08498822069106
C           -4.91424605847006        3.44758712609350       -0.00246668254539
C           -3.48932876847973        3.51824814462762       -0.00252880567466
C           -2.80241691400900        4.72670876069022        0.09055741892349
C           -1.41020413723601        4.77959961264738        0.09019175075592
C           -0.66702344519451        3.57365510491283       -0.00878592621467
C            0.74807317743980        3.60633049299329       -0.01738575318678
C            1.48224860809796        2.40614690128694       -0.11946694854996
C            2.89197169980358        2.43850229315185       -0.13439165446749
C            3.56814065623454        3.68298804217130       -0.04215586877404
C            4.99448410204968        3.68026891440694       -0.05379033187671
C            5.69837978533364        2.52686118090917       -0.14164080406954
C            5.04651518650170        1.26076311702196       -0.22532817047724
C            5.75309062862699        0.06243179059494       -0.29906431181684
C            5.10293629935974       -1.16779781245174       -0.36542012260356
C            3.68405113787536       -1.20609407145501       -0.36494784933557
C            3.00553500012270       -2.44663394978512       -0.41164234441476
C            3.73861409760212       -3.66103754574239       -0.46097648198635
C            5.16322965232029       -3.59094343835134       -0.47177805505246
C            5.81275665207791       -2.40367870265891       -0.42645923936409
C            3.05265377948471       -4.87330666183591       -0.49329392735247
C            1.66093385970800       -4.92764513528682       -0.47439698453542
C            0.94397849487106       -6.16068625327446       -0.50562173040915
C           -0.40984067024620       -6.19330980743451       -0.48965338855938
C           -1.18313240077492       -4.99559710411661       -0.43982377327025
C           -0.49692749544070       -3.75290189977695       -0.40302241752353
C            0.91817552426430       -3.71859684369544       -0.42191285624589
C            1.59582147236301       -2.48148822377242       -0.39065617142516
C            0.85852164020670       -1.27223126460684       -0.32541490950866
C           -0.55077414941250       -1.30578840800626       -0.30951706651628
C           -1.23146089827583       -2.54921476106778       -0.35285455804535
C           -2.64222281842445       -2.58170998661876       -0.34904179348968
C           -3.31846649132083       -3.82951106439167       -0.38752966159700
C           -2.57625828495016       -5.00768889368765       -0.43005435776960
C           -4.74508376542592       -3.82556955924869       -0.38189450838775
C           -5.44965237918226       -2.66967492147615       -0.34091992421166
C           -4.79858114383061       -1.40119009065906       -0.29684547786571
C           -3.37881225622664       -1.37379790271602       -0.30326497584881
C           -2.70189206905117       -0.13633078106097       -0.24806779137854
C           -1.28367971512428       -0.10327117001668       -0.25014161770686
C           -0.60720466639096        1.13170474506241       -0.18464346703520
C           -1.34484915262078        2.34001488239441       -0.10076158330292
C           -2.75573263246301        2.30659842769388       -0.09859549338582
C           -3.43561319572648        1.06745877847216       -0.17803854507566
C           -4.85500023210773        1.02791762086559       -0.17062675429327
C           -5.50524638347986       -0.20222735302647       -0.23653200927560
C            0.80179281232386        1.16468084049083       -0.19370858327831
C            1.53477242351039       -0.03671875612994       -0.27231335421298
C            2.95201731072117       -0.00270869475007       -0.29481118186552
C            3.62736642755851        1.23330989213443       -0.22538079023912
C            2.82677069602111        4.85834091521400        0.05840890835936
C            1.43401356597297        4.84618853452565        0.07328060447652
C            0.66064558702896        6.04075797621432        0.17551236388824
C           -0.69325240371488        6.00938556509439        0.18352690242093
H           -6.64334229788561        2.22542849255231       -0.08218321704144
H           -5.46529516114892        4.37356895566766        0.06765816484553
H           -3.36361061553170        5.64697853826128        0.16673676091478
H            5.50273977603315        4.63087976790041        0.01497281626612
H            6.77847459728895        2.53956257470983       -0.14426897962401
H            6.83381181820946        0.08730362210821       -0.29358101235697
H            5.71509538273555       -4.51861753890478       -0.51115027113870
H            6.89226022578471       -2.36604947287058       -0.42875337656306
H            3.61575893899999       -5.79520418909648       -0.52842339386710
H            1.51629789048530       -7.07575634781308       -0.54294755294948
H           -0.93736440126992       -7.13528179726507       -0.51440836101170
H           -3.09407199383991       -5.95571742735495       -0.45755497894981
H           -5.25250545100137       -4.77838132405995       -0.41071924673274
H           -6.52929885473748       -2.68303271708887       -0.33559138990142
H           -6.58502054039965       -0.22768360183739       -0.22929150564738
H            3.34663081748069        5.80313877998961        0.13160387088526
H            1.18995267183827        6.97944237584916        0.24658039236993
H           -1.26387940567636        6.92294427121921        0.26121464451558
