96
 energy: -215.479507309789 gnorm: 0.000286261980 xtb: 6.6.1 (8d0f1dd)
O            4.05958918917632        1.70018699899395        4.73482645002470
S            2.62989526676822        2.02344766360714        5.19438062929483
O            2.13230369083444        0.97874615464097        6.02423889041294
O            2.50248878025398        3.38245542966267        5.60333193877920
C            1.72694641890866        1.82163324454780        3.55713128591879
F            2.14662903667914        0.67780790919771        2.99886551950420
F            2.12896322644645        2.82348029862791        2.76408292197700
C            0.20182611191757        1.87895472614000        3.75740176759512
F           -0.05327717860015        2.40066850634501        4.97665888323165
F           -0.34031075876398        2.73741460087116        2.87264203514487
C           -0.58133678850187        0.53420437169697        3.60601927194572
F           -1.89127044945837        0.83957166490527        3.54770187716736
F           -0.26222312527629       -0.02286520919050        2.42803437146930
C           -0.35877893974494       -0.53074015537688        4.72250878410449
F            0.87858917099574       -1.03869982271644        4.60727857148842
F           -0.46606469008255        0.03189080975205        5.93568847940964
C           -1.38168520794369       -1.71630959615915        4.68284162845851
F           -0.98751133721569       -2.62063445914655        5.59566572425765
F           -2.59033683218217       -1.27355849480557        5.06673032805031
C           -1.53959002781922       -2.44433670401104        3.31211046791176
F           -2.16421404635784       -3.60148460621126        3.48649394486706
F           -0.36483957321024       -2.69522718177605        2.74939034030873
F           -2.26808019578517       -1.71058534414988        2.48245787284891
H            4.72181799828891        2.41748480650566        4.74086853664023
C           -5.80407959188975        2.11534546463689       -0.35509053580378
C           -5.17531957102966        3.31484272727012       -0.33209922152560
C           -3.75233003420212        3.40987264460646       -0.30330337553235
C           -3.08709176623594        4.63368075728652       -0.27402204998217
C           -1.69635459068312        4.71122217242633       -0.24511528575669
C           -0.93230501470375        3.51508182703768       -0.24871837137901
C            0.48142777711550        3.57281920917011       -0.21998475758043
C            1.23712679498678        2.38119705718725       -0.21828097709907
C            2.64680183753585        2.43714841657731       -0.18132660578820
C            3.30024671155563        3.69703185057799       -0.15841772743255
C            4.72619467261106        3.71779971668780       -0.13111580547417
C            5.45054360687096        2.57323095245511       -0.11418815825239
C            4.82121517615659        1.29296587708373       -0.11695847870581
C            5.54784102694302        0.10470842727140       -0.08384390922970
C            4.91905219674408       -1.13858280452112       -0.08607288710152
C            3.50153098426427       -1.20197064153668       -0.12819783521761
C            2.84400185946106       -2.45519089675625       -0.13359985985570
C            3.59764432212245       -3.65751774460943       -0.09149447861984
C            5.02044870879558       -3.56261528686457       -0.05168611533184
C            5.64973893884335       -2.36320169924409       -0.05012825615380
C            2.93203036017425       -4.88145897072142       -0.09085804795778
C            1.54157824335638       -4.95888322918326       -0.13275323480938
C            0.84609674698188       -6.20429367671576       -0.12613121583672
C           -0.50665222177885       -6.25967991675036       -0.16488663624897
C           -1.29944637022113       -5.07504048993295       -0.21939591399805
C           -0.63434133250112       -3.82079094949709       -0.23373786328438
C            0.77906873527222       -3.76272301358857       -0.18477419458980
C            1.43522764051952       -2.51381235062943       -0.18392532069431
C            0.67787871130000       -1.31596528456624       -0.23140959835698
C           -0.73016436438823       -1.37310981287367       -0.28287722503095
C           -1.38912608420713       -2.62940266669284       -0.28584982167206
C           -2.79916953146498       -2.68550392831366       -0.31644700274503
C           -3.45371458413804       -3.94513648897718       -0.30137765610626
C           -2.69183691012477       -5.11084957466555       -0.25507835994837
C           -4.87978263799172       -3.96589065968015       -0.32685792336480
C           -5.60344755170645       -2.82130681522723       -0.35394472474418
C           -4.97388369383559       -1.54128157644649       -0.35498840557607
C           -3.55566413790255       -1.48930213393202       -0.33868146262043
C           -2.90145576796595       -0.23928017361278       -0.32922771544952
C           -1.48473019195887       -0.18170659258377       -0.30627470614502
C           -0.83013516292098        1.06767022165123       -0.28364146467977
C           -1.58840264058389        2.26622774899181       -0.28110877248285
C           -2.99806313550491        2.20727823728756       -0.30562687093469
C           -3.65491336615033        0.95370143324076       -0.33028214443058
C           -5.07295094623653        0.89048044139320       -0.35177208519573
C           -5.70116925982526       -0.35292545578544       -0.36578616633979
C            0.57903716297174        1.12481467128854       -0.24548466224004
C            1.33276662231386       -0.06715251133504       -0.21781497853084
C            2.74875473041209       -0.00930700049303       -0.16683747208627
C            3.40297686179564        1.24090304057719       -0.15613991129430
C            2.53759707022106        4.86259212007269       -0.16272639260151
C            1.14534836202224        4.82685965394481       -0.18901895134420
C            0.35129589413955        6.01163183811284       -0.18850232744126
C           -1.00174575089904        5.95660259449966       -0.21449124635376
H           -6.88266231513453        2.06112375907989       -0.37545810328818
H           -5.74398422608135        4.23318015774864       -0.33397179117600
H           -3.66525531877345        5.54678641879227       -0.27306895077354
H            5.21751020606201        4.67947224110530       -0.12628599401007
H            6.52982610186806        2.60623125126788       -0.09534536457558
H            6.62718240404501        0.14814382481482       -0.05633250793993
H            5.58824809787906       -4.48101133852008       -0.02367043223860
H            6.72805818625643       -2.30934098903379       -0.02158029296372
H            3.50885784650337       -5.79472692856675       -0.05617309831566
H            1.43142273958726       -7.11121435189116       -0.08653156611008
H           -1.01852239436404       -7.21077953745482       -0.15589812614726
H           -3.19424718519340       -6.06755073690542       -0.24186768673920
H           -5.37193763154475       -4.92739012865935       -0.32141640920363
H           -6.68293248507257       -2.85468798498404       -0.37139364000135
H           -6.78091755359783       -0.39687265791384       -0.38072044086603
H            3.03834781957450        5.81989258813909       -0.14431536690522
H            0.86158921029029        6.96329460402105       -0.16703066766760
H           -1.58860278597221        6.86340944137461       -0.21393791506300
