96
 energy: -215.483089089169 gnorm: 0.000343521544 xtb: 6.6.1 (8d0f1dd)
O            4.05855321437863        0.32825791215748        4.56717632002329
S            3.09524193705349        0.15557697618361        3.37775319671186
O            2.81936449072880        1.42129260983096        2.79648258287671
O            3.46661430602531       -0.94883422183109        2.56055186121014
C            1.53172131106049       -0.32947519779703        4.31783236753258
F            1.12217556096731        0.75556517898630        4.99043827857642
F            1.82853928287296       -1.27784228256987        5.21644922621343
C            0.49098607435073       -0.81131240136890        3.30744733581036
F            0.44526834184317        0.08892991210703        2.31315372830952
F            0.92995289377460       -1.96847030901568        2.77817759547627
C           -0.96938605865242       -1.07993640988063        3.80243042697519
F           -1.62071742006304       -1.70132653475377        2.80572581958810
F           -0.93269358323170       -1.93895650070884        4.83810963960892
C           -1.76736391125265        0.18251330013579        4.25616654964779
F           -1.46078883437240        0.43756731875166        5.54049892042087
F           -1.40648850276779        1.26334620161771        3.54658088991262
C           -3.31863194614259        0.03945853929304        4.13493003940929
F           -3.86390880229609        1.18690364112287        4.57921890179229
F           -3.66922870670033       -0.08886305879986        2.84869514362589
C           -3.94896535550264       -1.13213752646470        4.94944501305835
F           -5.26902135077162       -1.01492512218061        4.94815579735802
F           -3.53473961054049       -1.12220926331070        6.21144510153565
F           -3.64139391887423       -2.31132892957106        4.42365847369163
H            4.73396895188063       -0.35931281032856        4.71899171203430
C           -5.53506065158294        2.43568232765871        0.12073729120352
C           -4.88809662968239        3.62555794348258        0.10487633249738
C           -3.46583490569252        3.69919705631793        0.02414641087080
C           -2.78148033275071        4.91268281540883        0.02077392565103
C           -1.39080009711738        4.96883943512098       -0.04293889485233
C           -0.64744778670511        3.76142829154831       -0.11763269629180
C            0.76669545870653        3.79648350286004       -0.16681225210019
C            1.50181259204970        2.59427844169177       -0.23935942894817
C            2.91158631419185        2.62758569618600       -0.25642479776180
C            3.58632320258007        3.87533878108861       -0.20746045125077
C            5.01252647663583        3.87368355501598       -0.20960370168208
C            5.71773000665736        2.71812100456544       -0.24778339298928
C            5.06697037811850        1.44963518144065       -0.29444921913428
C            5.77490855619384        0.25017840172804       -0.32435200048785
C            5.12658890986273       -0.98224098124041       -0.35854768042630
C            3.70830991909884       -1.02216987904285       -0.36756087852299
C            3.03202688303706       -2.26457412615783       -0.36807821672115
C            3.76701768240367       -3.47870920008885       -0.36997698765732
C            5.19127669089232       -3.40718424066672       -0.38146867008806
C            5.83878372342421       -2.21784456998156       -0.37365694613494
C            3.08322736073490       -4.69241784968747       -0.35225951715151
C            1.69180791811803       -4.74860255626320       -0.31645198700983
C            0.97849350586206       -5.98349043110985       -0.28269016935839
C           -0.37429408611648       -6.01793110039985       -0.22561193930159
C           -1.14894481154034       -4.82059307888120       -0.19551455435530
C           -0.46675150673814       -3.57641490772055       -0.24423657524574
C            0.94692048724803       -3.54022237527684       -0.30559859756138
C            1.62215822740802       -2.30161590938715       -0.34295146270409
C            0.88268227186084       -1.09149426845955       -0.32970174873397
C           -0.52665486195856       -1.12761081047314       -0.26355749710892
C           -1.20373583991180       -2.37348135967455       -0.21758526127671
C           -2.61155002084284       -2.40803990824196       -0.12568729767885
C           -3.28297705937414       -3.65754774750195       -0.07393246353779
C           -2.53966382829129       -4.83499749492000       -0.11506066297138
C           -4.70601481116627       -3.65699868920578        0.02211984283354
C           -5.41131184363216       -2.50171513923097        0.06912861934811
C           -4.76391677176000       -1.23161424356979        0.02622372045847
C           -3.34840452408417       -1.20109861446897       -0.07471823512432
C           -2.67610035782016        0.03893867861116       -0.11126718115937
C           -1.26109219598161        0.07588444300278       -0.20629915819816
C           -0.58594242351089        1.31461968053437       -0.21404387694732
C           -1.32369639613497        2.52309059068218       -0.13070085791171
C           -2.73228555988176        2.48583795098304       -0.05141050205816
C           -3.40897290593999        1.24275398927174       -0.03960625191992
C           -4.82479511206421        1.20048292341957        0.05449233513744
C           -5.47119218685663       -0.03303071715485        0.08340371899467
C            0.82290401358675        1.35043771116184       -0.27604786519928
C            1.55740411968185        0.14771283341160       -0.33475595209218
C            2.97448633399656        0.18232015155848       -0.34680726231132
C            3.64811311216233        1.42083577703528       -0.30543822085967
C            2.84383908046450        5.05306521876004       -0.15552271251256
C            1.45104626932126        5.03984560638759       -0.13326067556950
C            0.67733047189532        6.23676436802149       -0.07082498231743
C           -0.67608492119342        6.20323633518983       -0.03013067857357
H           -6.61256229385117        2.39714480003650        0.18540966021629
H           -5.44080441187846        4.55211676487685        0.15639314158518
H           -3.34366470841260        5.83404081755202        0.07567430583259
H            5.51997733910685        4.82659450068507       -0.17485376863305
H            6.79774525417803        2.73358916549368       -0.24455726248275
H            6.85539622005249        0.27680870321024       -0.31589500784531
H            5.74473506608128       -4.33469562022701       -0.38957503930037
H            6.91824780631090       -2.18007986495328       -0.37548832238407
H            3.64678445680160       -5.61454829757844       -0.35790631961651
H            1.55078597544218       -6.89927145495984       -0.30067458001516
H           -0.89960003908081       -6.96124670242031       -0.19745998860985
H           -3.05492680943804       -5.78420961263350       -0.07813980443428
H           -5.21144663826904       -4.61087639985406        0.05737449206540
H           -6.48884785412876       -2.51830624376881        0.14229464694239
H           -6.54907558676224       -0.06060019186152        0.15653041005797
H            3.36166358023601        6.00123764112704       -0.12421910646725
H            1.20402410888488        7.17960880652182       -0.05453193240003
H           -1.24735336696644        7.11862167382885        0.01869271884573
