97
 energy: -219.563703121397 gnorm: 0.000354830966 xtb: 6.6.1 (8d0f1dd)
O            4.01928733976814        0.29692018952892        4.55778380332767
S            3.05074284630470        0.12541215382855        3.37211217982607
O            2.77679997231967        1.39212250702554        2.79235943205204
O            3.41682140030916       -0.98066549470958        2.55486609972974
C            1.48869397305569       -0.35684140885032        4.31661578271023
F            1.08178052924737        0.72773538330814        4.99156814416358
F            1.78730648471984       -1.30644134367821        5.21339909437193
C            0.44481195225943       -0.83611768134287        3.30824624530242
F            0.39842997295698        0.06595297490423        2.31570795787093
F            0.88098985930070       -1.99306372189396        2.77630145032219
C           -1.01381683150899       -1.10530932024610        3.80858167270217
F           -1.66487792532304       -1.73952916199170        2.82002371770463
F           -0.97067500965871       -1.95398562469093        4.85278628842097
C           -1.81706678296998        0.15727594033782        4.25258167681547
F           -1.50703600558905        0.42737265319346        5.53305780923597
F           -1.46600875242940        1.23325887712769        3.53102488906023
C           -3.36800561900678        0.00307631737127        4.13899824400427
F           -3.91861083330551        1.15188625637469        4.57365249428070
F           -3.72252714876506       -0.14036441251597        2.85553482047500
C           -3.98805151291689       -1.16339202252440        4.96870767299219
F           -5.30876968539206       -1.05511302643520        4.97086353247375
F           -3.56981439752529       -1.13546728421674        6.22931773357571
F           -3.67397816666463       -2.34658242484946        4.45624497912516
H            4.68067074585365       -0.40239260527080        4.71750847485603
C           -5.55081420157566        2.40751327618921        0.10456709217951
C           -4.89707677072331        3.60156362727866        0.08592476426130
C           -3.47842598492834        3.67738478231459        0.01108174163477
C           -2.79919388029620        4.89428014139074        0.00400752535565
C           -1.40870602296034        4.95696992312421       -0.05821153710243
C           -0.65843530149725        3.75394428270257       -0.12741933089875
C            0.75502778490890        3.79544580168023       -0.17809797532392
C            1.49559522660584        2.59633748371866       -0.24639650439914
C            2.90499678111545        2.63635190396542       -0.26887127334859
C            3.57409634789296        3.88765119731914       -0.22924793233189
C            5.00026364623382        3.89254785499045       -0.23954575404861
C            5.71077323795741        2.74021299771078       -0.27690170208719
C            5.06580689466299        1.46840162013635       -0.31418145793178
C            5.77919279079834        0.27222873953158       -0.34463527803096
C            5.13634356687497       -0.96334259141068       -0.37201599265541
C            3.71823387002182       -1.00995072397210       -0.37306314586567
C            3.04759219509753       -2.25542185627786       -0.36894122171418
C            3.78821677404904       -3.46606737824942       -0.37304634556295
C            5.21202279443735       -3.38797444577345       -0.39217775457477
C            5.85413096477311       -2.19566295298704       -0.38940788838737
C            3.11020863096633       -4.68298776462733       -0.35060508553724
C            1.71933848241332       -4.74555099968552       -0.30860327626904
C            1.01191021756013       -5.98372179357238       -0.26974484886355
C           -0.34039364616979       -6.02436922081568       -0.20731867354012
C           -1.12065348213973       -4.83055546698668       -0.17758393708299
C           -0.44442074962552       -3.58327336631233       -0.23134593577369
C            0.96883684539273       -3.54062908252476       -0.29686003088417
C            1.63801446006273       -2.29891209005955       -0.33818666838301
C            0.89280459236278       -1.09228629935268       -0.32451290318120
C           -0.51634944059760       -1.13468993140383       -0.25684183904404
C           -1.18711560033006       -2.38380997944352       -0.20665979412252
C           -2.59460880964241       -2.42477870591903       -0.11314844827141
C           -3.26000443910047       -3.67722904814705       -0.05565936562331
C           -2.51088729719449       -4.85136672999786       -0.09369759670874
C           -4.68275682300291       -3.68385223610009        0.04196561406717
C           -5.39402499351536       -2.53177186531347        0.08313273795266
C           -4.75227837819392       -1.25975749441933        0.03347582041417
C           -3.33762174093656       -1.22107264791261       -0.06657230043399
C           -2.67183790204042        0.02269625546527       -0.10720938139851
C           -1.25662756042139        0.06563600540619       -0.20223175002685
C           -0.58637883679121        1.30695830066823       -0.21346278240517
C           -1.32924796132598        2.51248935885097       -0.13504442349598
C           -2.73653757668089        2.46909454780066       -0.05749865585387
C           -3.40922449036444        1.22452522874064       -0.04135192766708
C           -4.82311984473004        1.16800406771842        0.04861461512355
C           -5.46658423468353       -0.06470734253269        0.08312229368299
C            0.82223548498509        1.34917800950202       -0.27608534609741
C            1.56203822021652        0.14984450914669       -0.33281353631415
C            2.97888464710845        0.19109788589560       -0.35065990095925
C            3.64697459145339        1.43286456814209       -0.31654052001870
C            2.82619962432767        5.06198222211831       -0.17942402858750
C            1.43350695591324        5.04218755776009       -0.15224332772307
C            0.65349063384740        6.23504385999488       -0.09343071111356
C           -0.69981629358223        6.19472420185461       -0.05081640903129
H           -5.45197432502304        4.52810357330310        0.12997311172233
H           -3.36411216749951        5.81415195225111        0.05386554175094
H            5.50348721169427        4.84798630061632       -0.21207175357336
H            6.79072643053947        2.76080989041138       -0.28033031761731
H            6.85959200605517        0.30391575051615       -0.34314683198841
H            5.76975262552134       -4.31292526127346       -0.40218358566703
H            6.93340910962837       -2.15292713249576       -0.39728064767915
H            3.67808838412715       -5.60246857927190       -0.35781847661278
H            1.58846556597131       -6.89682893164622       -0.28811097461078
H           -0.86122545557288       -6.97002198619025       -0.17503883040728
H           -3.02159716898280       -5.80281691345990       -0.05238253773642
H           -5.18305241407211       -4.64016871583145        0.08273915760620
H           -6.47131537055189       -2.55192847305794        0.15674657559795
H           -6.54361779201149       -0.08745421547491        0.15361670737382
H            3.33966153358700        6.01279701764108       -0.15492423956107
H            1.17519626255995        7.18080856547428       -0.08168618015027
H           -1.27505429407388        7.10785016644177       -0.00491852835804
O           -6.90168471608539        2.31022050987794        0.17658179207315
H           -7.30825362136682        3.19016149050645        0.19732853909538
