95
 energy: -215.345258381520 gnorm: 0.000433132408 xtb: 6.6.1 (8d0f1dd)
O            0.45885761767898        1.16533784431147        3.57244344054616
S            1.90050809790663        0.99314679781606        3.62992751663768
O            2.51434236542583        1.41041205188878        4.86909200313951
O            2.60996827073777        1.37129313686571        2.43897797114133
C            2.05984409985711       -0.86165775316424        3.67449885752441
F            3.37382100003261       -1.15779082741073        3.76596830973097
F            1.64767233327195       -1.34273326391619        2.49027495692787
C            1.30790123610543       -1.55327814713509        4.81286735635114
F            0.93919977178596       -2.80769184530913        4.44812510833931
F            2.14722584542105       -1.70908607152293        5.85641605806205
C            0.03937408539106       -0.85091717157426        5.37273258794994
F           -0.39535208650613       -1.63100620119876        6.39767061739590
F            0.35876352125101        0.30424172902248        5.96133103094180
C           -1.16198503856585       -0.75427168214727        4.37791711283777
F           -0.79159102600035       -0.87341871759827        3.09559443951696
F           -1.92321174678375       -1.85489482754534        4.59187332185552
C           -2.11724861174624        0.46367977475114        4.59110439928999
F           -3.05011387944334        0.07865516527257        5.49176553453752
F           -1.56392399510542        1.56323860663344        5.10725065127321
C           -2.86195035799234        0.84791263235688        3.28035440090028
F           -2.07782371076721        1.45586389157562        2.41082478201001
F           -3.39402132956761       -0.22612211725841        2.70535329795340
F           -3.86607098272735        1.67520343152688        3.56467514954070
C           -5.64972519968745        2.37709720300392       -0.28221805984047
C           -5.00722919774414        3.56846750697546       -0.32670290482839
C           -3.58308624360117        3.64692323725557       -0.35237189176742
C           -2.90377257024801        4.86287107686195       -0.37802406113671
C           -1.51201815473201        4.92403257115637       -0.38681512167588
C           -0.76140491495445        3.71876271071343       -0.37620196271177
C            0.65349909133106        3.75940251461534       -0.37894709595682
C            1.39550531561970        2.55954127163014       -0.36891927987331
C            2.80496183459533        2.59965527635682       -0.36930193827984
C            3.47297441664218        3.85173768659929       -0.37483528838897
C            4.89908053144612        3.85769112827688       -0.36335693021903
C            5.61000779282576        2.70562919077369       -0.33853799039353
C            4.96570004527804        1.43333515483499       -0.32293492868459
C            5.68001222204672        0.23824590187542       -0.27865135319157
C            5.03802641077480       -0.99737859989857       -0.24783645029358
C            3.61931740125206       -1.04486890415063       -0.26837507136932
C            2.94842161561182       -2.29048237618644       -0.22180925998262
C            3.68923179950687       -3.49985271871139       -0.15566800779287
C            5.11333826147746       -3.42075223744450       -0.14785216884990
C            5.75524106422592       -2.22905516847555       -0.19058985057608
C            3.01036709702069       -4.71498857833390       -0.09439759810731
C            1.61879990764037       -4.77659938286759       -0.08475414305774
C            0.90988931255884       -6.01223865375288       -0.00941578670240
C           -0.44368584343001       -6.05139792520429        0.00936836862383
C           -1.22416956160483       -4.85858241546605       -0.04314700134253
C           -0.54599824266750       -3.61374694518990       -0.12259228101502
C            0.86861524166056       -3.57278084183126       -0.14665359718177
C            1.53826976638350       -2.33351340423877       -0.22345334930278
C            0.79388435440473       -1.12716656785923       -0.27293222449757
C           -0.61503083289924       -1.16818917806246       -0.24799805863978
C           -1.28782462874437       -2.41459993636403       -0.17376989888116
C           -2.69811941849141       -2.45424391498149       -0.14600558419426
C           -3.36643229727098       -3.70440083258734       -0.06701610239068
C           -2.61703106609014       -4.87772651850085       -0.01853479915629
C           -4.79255391476879       -3.70818669780191       -0.04019528948643
C           -5.50386529554536       -2.55668589803670       -0.08366910366831
C           -4.86045243209818       -1.28605303901519       -0.15995830374118
C           -3.44176721402346       -1.25121372177326       -0.19568279890558
C           -2.77323382972858       -0.01045232787764       -0.26800192963415
C           -1.35542691193312        0.03097588178498       -0.28868635792049
C           -0.68625955881187        1.27132292964051       -0.33473913432559
C           -1.43147042009380        2.47769281885178       -0.35689415969612
C           -2.84200308397844        2.43608948932226       -0.34259035389176
C           -3.51387380252353        1.19071490434092       -0.29817664707043
C           -4.93253153212594        1.14422322501581       -0.26029300505899
C           -5.57441642200181       -0.09055622567501       -0.19512598328242
C            0.72280445298870        1.31215532799136       -0.34564578496060
C            1.46286766777789        0.11296664046468       -0.32144260625411
C            2.87974578058966        0.15508913321421       -0.32040863166666
C            3.54764486714843        1.39650066773467       -0.34569066183268
C            2.72411280204225        5.02648042326665       -0.38729645539811
C            1.33133020313011        5.00684304024775       -0.38988572816729
C            0.55065799906266        6.20080406253610       -0.40189436742071
C           -0.80307533887890        6.16166774268978       -0.40162648489997
H           -6.72847158894940        2.33461524860628       -0.25807423398805
H           -5.56408140055937        4.49362356820882       -0.33900054153040
H           -3.47068038607849        5.78289157396658       -0.38395646763975
H            5.40129713748705        4.81417953733912       -0.36781401809877
H            6.69001722352302        2.72567611153751       -0.32212701009223
H            6.76034411621592        0.27122818540010       -0.25630113204352
H            5.67142256943205       -4.34430049120566       -0.10090640299299
H            6.83436468942247       -2.18435821126891       -0.17819745113357
H            3.57922944672411       -5.63254020556699       -0.04396847058509
H            1.48767613963337       -6.92360842211239        0.03480571871405
H           -0.96537364439223       -6.99510642972726        0.06825586880010
H           -3.12889073172855       -5.82738024307320        0.04249915360768
H           -5.29415166724773       -4.66270086533994        0.01841417388445
H           -6.58328599398764       -2.57578540785432       -0.06002027238040
H           -6.65404479377580       -0.12057636531427       -0.16446554325963
H            3.23783492614950        5.97765518108547       -0.38908363908060
H            1.07408045015081        7.14554333126199       -0.40984346712986
H           -1.37932129814043        7.07507976005222       -0.40956271031460
