97
 energy: -219.560158641515 gnorm: 0.000280867539 xtb: 6.6.1 (8d0f1dd)
O            4.05775614840311        1.73601656456645        4.75627585111051
S            2.62356489086607        2.05581833461524        5.20404316829675
O            2.12666113280094        1.01240112779816        6.03595236619526
O            2.48781698885816        3.41652469035678        5.60487169345531
C            1.73019156671347        1.84282679063713        3.56259881717062
F            2.15684498005131        0.69835551129741        3.01114448141679
F            2.13243070715096        2.84297541717034        2.76751707561373
C            0.20391530232726        1.89559051876658        3.75515733206291
F           -0.05885261059426        2.41791015131070        4.97279552356904
F           -0.33651183492752        2.75166981334333        2.86752402368924
C           -0.57444051040632        0.54810464752386        3.60249915097934
F           -1.88491714199960        0.84981420942682        3.53769756320560
F           -0.24830833293170       -0.01137209435747        2.42770317685454
C           -0.35368548268513       -0.51354867235726        4.72255964397197
F            0.88521666296984       -1.01900525549605        4.61291894453899
F           -0.46609092419305        0.05171201960466        5.93412683377471
C           -1.37416439346579       -1.70119554081550        4.68298498579792
F           -0.97911614476139       -2.60349541690109        5.59752044373788
F           -2.58377814211521       -1.25982799409773        5.06549531110528
C           -1.53022597792567       -2.43186122052061        3.31334474749267
F           -2.15401318823986       -3.58918729714297        3.48998379069848
F           -0.35486445618943       -2.68310736181210        2.75205507876279
F           -2.25859773200743       -1.70043320622887        2.48166818365474
H            4.71541344642691        2.45762523835206        4.75417656845944
C           -5.82700536320855        2.08616293887420       -0.33235567725304
C           -5.18896258413406        3.28876622222678       -0.30827097684599
C           -3.76985315307689        3.38330990668722       -0.28487424733555
C           -3.10720222441989        4.60908704264011       -0.25354582875049
C           -1.71668243310000        4.69051354660498       -0.22815864760629
C           -0.94816394673712        3.49767405688007       -0.23864284364557
C            0.46496725954851        3.55907371278330       -0.21265349506951
C            1.22378973307674        2.36939331528937       -0.21682124515100
C            2.63324743314158        2.42898984328255       -0.18180171527901
C            3.28348257606684        3.69057168152847       -0.15506805040541
C            4.70936537948962        3.71477814915844       -0.12981651603026
C            5.43672338251310        2.57208178792838       -0.11800153930553
C            4.81070990882397        1.29019535898459       -0.12397110302456
C            5.54039289304122        0.10379985290091       -0.09428223805949
C            4.91470332251343       -1.14107778500115       -0.09727772387448
C            3.49733876298852       -1.20797984197492       -0.13800771001464
C            2.84289486376115       -2.46281664355207       -0.14388072058171
C            3.59971138619982       -3.66320498461756       -0.10366349122303
C            5.02222803866282       -3.56479523487002       -0.06424792659615
C            5.64850786215242       -2.36380821329321       -0.06236549023977
C            2.93737714205836       -4.88895017791194       -0.10422783374803
C            1.54720485844636       -4.96991196178179       -0.14474656776634
C            0.85510728208730       -6.21725278195945       -0.13985592130393
C           -0.49747465892226       -6.27616800719290       -0.17619802520673
C           -1.29358053115671       -5.09344141169024       -0.22591531136709
C           -0.63186472053573       -3.83731230619293       -0.23909363996028
C            0.78143816418196       -3.77563560234261       -0.19326720067899
C            1.43414449762129       -2.52493170478567       -0.19205195598001
C            0.67344406092386       -1.32896837067014       -0.23658967573713
C           -0.73461941537921       -1.38957291738175       -0.28453955310721
C           -1.38992596028096       -2.64785756595139       -0.28725223642102
C           -2.79980668324567       -2.70778104020480       -0.31417168294426
C           -3.45102355724555       -3.96916209558598       -0.29972501195021
C           -2.68571386936661       -5.13303907531321       -0.25811928215627
C           -4.87690222934780       -3.99454999032276       -0.32125236603830
C           -5.60404523271323       -2.85184857330092       -0.34392806389668
C           -4.97724078917197       -1.57114438606113       -0.34446587479530
C           -3.55992590456946       -1.51346207446380       -0.33248930209711
C           -2.90969404188904       -0.26103454648570       -0.32314831500776
C           -1.49264173586467       -0.20003072028559       -0.30442405172498
C           -0.84041687603547        1.05053850603555       -0.28161489144043
C           -1.60142761026515        2.24725944634479       -0.27361592312522
C           -3.00977214597647        2.18473153800595       -0.29368227955528
C           -3.66517441847514        0.93107537314044       -0.31927221572826
C           -5.08101203883564        0.85613460109377       -0.33574531339232
C           -5.70892710120235       -0.38516563345612       -0.35019938914816
C            0.56872387805687        1.11139736711318       -0.24674559979821
C            1.32549377239655       -0.07860828395610       -0.22277957898061
C            2.74141766885373       -0.01720784269384       -0.17396523301558
C            3.39253039846697        1.23463024277453       -0.16139637952383
C            2.51775063780047        4.85406345357979       -0.15299871616327
C            1.12555335177874        4.81473285496474       -0.17714040549623
C            0.32760563751965        5.99670469594025       -0.16966749078763
C           -1.02541231296826        5.93758905637875       -0.19344643023766
H           -5.75800034832541        4.20782450937159       -0.30403121713367
H           -3.68617827885087        5.52155882896638       -0.24733438991347
H            5.19827265981128        4.67770246964218       -0.12217884488334
H            6.51598024753214        2.60778193880721       -0.10106047861349
H            6.61968328509191        0.14992444115855       -0.06823072693108
H            5.59232120240904       -4.48179667297614       -0.03645961804113
H            6.72670717913501       -2.30718615870104       -0.03381019994164
H            3.51670836408724       -5.80071276865124       -0.07142810998033
H            1.44305101068949       -7.12264174415585       -0.10377244981509
H           -1.00685801627689       -7.22861103469027       -0.16884281352727
H           -3.18556705410204       -6.09105763022019       -0.24592750509304
H           -5.36598012048724       -4.95756493356771       -0.31600638610493
H           -6.68338188916219       -2.88673266148126       -0.35781824611472
H           -6.78783848816057       -0.42249133726337       -0.36135921020984
H            3.01605556874098        5.81261506180725       -0.13100740474235
H            0.83482938025209        6.94998657248481       -0.14418784780961
H           -1.61448902109424        6.84302136550098       -0.18710682074611
O           -7.17780696678278        1.97099656937249       -0.35271862473804
H           -7.59725207417629        2.84497235703122       -0.34422253409468
