85
 energy: -173.171421669606 gnorm: 0.000654990110 xtb: 6.6.1 (8d0f1dd)
O           -1.30281905748043       -1.88994407155303        3.46198797587302
S           -2.36054699988712       -0.87920525600444        3.96632539979960
O           -3.43755416982968       -0.77070181489949        3.04644406870124
O           -2.63992774742617       -1.10077404478690        5.34854795949346
C           -1.42021024913308        0.74120656130683        3.85604104262193
F           -1.84062847402992        1.40320156535093        2.77616830555555
F           -1.78168998382484        1.45531817249801        4.93683298005275
C            0.09771281416637        0.56126392954731        3.83745169042453
F            0.46628640939483       -0.19167568111438        4.87574657126795
F            0.75823499928684        1.71528887885665        3.92472586334864
F            0.50171998004782       -0.04823976083849        2.73164471757066
H           -1.07673305968613       -2.60357515250878        4.08583856833484
C           -5.54905512159492        2.23713686619014        0.24701778445027
C           -4.91284830958372        3.44012159218701        0.20752180528128
C           -3.49606414174619        3.53450372089204        0.12082494130671
C           -2.83382390850462        4.76062510306888        0.09008263448657
C           -1.44485733232667        4.84220684132587        0.01845666908588
C           -0.67830278539787        3.64856735458818       -0.02763520232953
C            0.73420817490553        3.70963803843311       -0.09037372096981
C            1.49146694756407        2.51962085224975       -0.13409005804478
C            2.89996529697412        2.57912523868409       -0.19747848158683
C            3.55121520903184        3.84059469108734       -0.21617094856196
C            4.97602951317935        3.86441648945793       -0.28187231869892
C            5.70170299670647        2.72163668451355       -0.32821214231876
C            5.07543090008538        1.44001329629530       -0.31294649705687
C            5.80391097538593        0.25338826680043       -0.36388365274045
C            5.17822613562537       -0.99153041471502       -0.34797827894180
C            3.76194520702789       -1.05819270614681       -0.27510086599257
C            3.10743661955852       -2.31315753866134       -0.25363920161762
C            3.86290681287142       -3.51397816130440       -0.31005407586230
C            5.28399801728494       -3.41559447974240       -0.38674446818083
C            5.91034697839467       -2.21467193691830       -0.40334054251393
C            3.20051662961561       -4.73966411176463       -0.28927786661541
C            1.81182365481366       -4.82031841370182       -0.20924795016246
C            1.11994018461098       -6.06770654560908       -0.18501828213678
C           -0.23070831751901       -6.12595197939219       -0.10087706008293
C           -1.02521657295426       -4.94267836386419       -0.03494819315429
C           -0.36486187044759       -3.68606858689965       -0.06484758016893
C            1.04692764675176       -3.62551442019644       -0.14957528392540
C            1.69963413593171       -2.37473540951272       -0.17572500065393
C            0.93938801661981       -1.17827065445937       -0.12732091006016
C           -0.46747613787383       -1.23871336423720       -0.04914049827731
C           -1.12180748544008       -2.49619201968354       -0.01119628139075
C           -2.52894923502730       -2.55524739843700        0.07393737723185
C           -3.17841314151528       -3.81706679134806        0.11492151545836
C           -2.41477055462947       -4.98162693226931        0.05792523079575
C           -4.60114227986196       -3.84239703633604        0.20975258714260
C           -5.32655665063553       -2.69918687160777        0.25327706746119
C           -4.70170528295389       -1.41898773892026        0.20443055332215
C           -3.28806662969116       -1.36153263703044        0.11305142800577
C           -2.63957323383574       -0.10977693689798        0.06677528615281
C           -1.22447146704342       -0.04913711459421       -0.01131155769992
C           -0.57225541382220        1.20119628555653       -0.04751463745618
C           -1.33215806818776        2.39816374051138       -0.00663434127042
C           -2.73856602308371        2.33565441930649        0.06906908882683
C           -3.39318740044970        1.08201870853243        0.10770615924296
C           -4.80530622997378        1.00696965194348        0.19969399467209
C           -5.43168686851793       -0.23375079724394        0.24667996568558
C            0.83551455707701        1.26182973747534       -0.11395068391974
C            1.59138891561791        0.07185241047275       -0.15666506341743
C            3.00682382643351        0.13302499280276       -0.22525262094739
C            3.65832067388786        1.38473930671140       -0.24481743013877
C            2.78700729154609        5.00468445837737       -0.17201933909719
C            1.39554470532734        4.96576892790430       -0.11031825763425
C            0.59913923397005        6.14825921665351       -0.06741432402147
C           -0.75288134101002        6.08935766612963       -0.00643201961974
H           -5.48107431992095        4.35910427635882        0.24586998423404
H           -3.41144292695079        5.67338193112050        0.12732908410834
H            5.46609852730008        4.82710261156495       -0.29477086562634
H            6.78021418387899        2.75790802605840       -0.37897300765864
H            6.88241310097602        0.30008938156884       -0.41843709990239
H            5.85378510589154       -4.33228568983155       -0.43113420026655
H            6.98761890220884       -2.15779827425180       -0.46082382192274
H            3.77926660796503       -5.65122912573094       -0.33605057489792
H            1.70655117629227       -6.97324083273231       -0.23614108065527
H           -0.73926972255931       -7.07866619536455       -0.08387997472621
H           -2.91448461067406       -5.93950443933197        0.08248867199165
H           -5.09039646150581       -4.80482878750752        0.24493358605576
H           -6.40373201779070       -2.73313269595873        0.32560393539250
H           -6.50825986248601       -0.27061865797807        0.32212999387604
H            3.28631711234612        5.96323885780774       -0.18714875015804
H            1.10676254585415        7.10173287315332       -0.08483081101842
H           -1.34052298350540        6.99530284538854        0.02577475243080
O           -6.89838282560770        2.12370039389921        0.33136856259843
H           -7.31417523794620        2.99925390463982        0.35651344438861
