84
 energy: -169.090901234342 gnorm: 0.000767642289 xtb: 6.6.1 (8d0f1dd)
O           -1.68197988959352       -0.65006441529995        3.14664577714774
S           -1.88839429373441        0.74102125798778        3.79667126043331
O           -2.62051922311631        1.59908927424802        2.93411679045894
O           -2.29517306112712        0.59472734192083        5.15680009976791
C           -0.13814344752220        1.41668604814142        3.83546164074378
F            0.07453942636044        2.15736588347066        2.74544804177388
F           -0.08809507042185        2.23460811382538        4.90132483477089
C            0.90913885276871        0.31059933221409        3.96657441298560
F            0.51891240378998       -0.56164670725617        4.89924078680882
F            2.11046369355729        0.76349020823522        4.32044057085264
F            1.04879214610820       -0.35490002401496        2.82792404116735
H           -1.90394994236708       -1.39427115633320        3.73330653334953
C           -5.62935022333610        2.17510419598485        0.16452577214940
C           -4.99295208033362        3.37033160991613        0.17783541154339
C           -3.57020003422850        3.45718498621292        0.13221537179614
C           -2.89753470207336        4.67682481015339        0.15367222220616
C           -1.50664112170014        4.74685544927339        0.11676120310956
C           -0.75121370897198        3.54701741958807        0.05376543437963
C            0.66298586913497        3.59675526775740        0.02523062353483
C            1.41113412095266        2.40175814289104       -0.03007667104650
C            2.82131989251219        2.44938849104429       -0.04921863295067
C            3.48382444408255        3.70469240253461       -0.01855989411522
C            4.91013291395832        3.71696587408561       -0.04159778102970
C            5.62718166920450        2.56880981321503       -0.08953174598406
C            4.98984551355062        1.29296469818019       -0.11911912472772
C            5.70947878372466        0.10090581111466       -0.16943645292660
C            5.07306835747114       -1.13827206926602       -0.19806786554418
C            3.65464213771729       -1.19326542181858       -0.17422606891146
C            2.98934161529473       -2.44238116488718       -0.20060417145035
C            3.73592959550062       -3.64877622457219       -0.25522526182417
C            5.15958671494456       -3.56201484510931       -0.28069564293476
C            5.79625856805812       -2.36676454272927       -0.25259640461720
C            3.06280118576503       -4.86846166028265       -0.28358192214511
C            1.67144664299188       -4.93779920311795       -0.25649566205181
C            0.96823656445028       -6.17868828993856       -0.28675673963101
C           -0.38518405247963       -6.22591520945245       -0.25773764653347
C           -1.17114678708813       -5.03700385518288       -0.19457865017169
C           -0.49892978254868       -3.78665607648395       -0.16688314911939
C            0.91548914624001       -3.73742997533612       -0.19795586519775
C            1.57939110869032       -2.49243826328827       -0.17292944202586
C            0.82858883529144       -1.29017951048791       -0.12284381880620
C           -0.58024001807751       -1.33897914173334       -0.08826748506188
C           -1.24648985247186       -2.59093888435268       -0.10937495769200
C           -2.65633997502162       -2.63904995421372       -0.07379493084721
C           -3.31844032920260       -3.89501538360599       -0.09770141927485
C           -2.56379248822506       -5.06485429325393       -0.15964569388696
C           -4.74438371306394       -3.90811201320220       -0.05713257462128
C           -5.46071138952185       -2.76006630478914        0.00498263845578
C           -4.82337939066873       -1.48379558536311        0.02907380719238
C           -3.40505090001560       -1.43903395198536       -0.01329305132033
C           -2.74359747523729       -0.19272416554092        0.00134476469622
C           -1.32695082497448       -0.14359669842950       -0.03788680164729
C           -0.66502871796424        1.10112128757942       -0.02583435419123
C           -1.41578362320820        2.30301062275657        0.02755571149227
C           -2.82438570023011        2.25218407912658        0.06720531384584
C           -3.48880560988532        1.00349843730575        0.05464836553426
C           -4.90595677554010        0.94756117530131        0.10371159722041
C           -5.54234157525270       -0.29187904346945        0.08985574553843
C            0.74447418220157        1.15004743441865       -0.05732995066135
C            1.49121734572105       -0.04543508245981       -0.10520855516942
C            2.90858644144821        0.00366821195777       -0.12626826540526
C            3.57090502520455        1.24937130555025       -0.09802085590503
C            2.72850950131514        4.87424661929305        0.03290749118424
C            1.33557706805427        4.84640483659971        0.05710269059515
C            0.54974981530333        6.03548656495733        0.11426984038775
C           -0.80359996610994        5.98783944536489        0.14286178965658
H           -6.70799675495295        2.12709125684215        0.20133371802193
H           -5.55527454614242        4.29156436553308        0.22618729559289
H           -3.46935826479660        5.59281597295197        0.20467376614448
H            5.40837456392708        4.67518693351021       -0.01993892337641
H            6.70691435122925        2.59620301833784       -0.10710559234168
H            6.78948063749347        0.13884009534557       -0.18766079951879
H            5.72269764694244       -4.48287237442253       -0.32352395320951
H            6.87524510988553       -2.31855380960076       -0.27227199315370
H            3.63503855555071       -5.78424346082200       -0.32851481848506
H            1.54857437934728       -7.08846917832393       -0.33511102190198
H           -0.90191001552449       -7.17414025930183       -0.28247962821675
H           -3.07186822271203       -6.01838773962667       -0.18173994666632
H           -5.24329987459159       -4.86585087649980       -0.07809073469097
H           -6.54007999288297       -2.78705428125402        0.03464824067110
H           -6.62199379711283       -0.32904527383723        0.12457808943992
H            3.23623721613550        5.82814496084838        0.05610468134487
H            1.06653665731979        6.98387114530624        0.13591863426924
H           -1.38418048516357        6.89771917001556        0.18798891072655
