84
 energy: -168.000261122830 gnorm: 0.000500239819 xtb: 6.6.1 (8d0f1dd)
O            1.18311989463112        1.52022694363243        4.59085961820494
C            0.93108089023221        0.63918651440833        3.67668847831758
O            1.65167910108438        0.21152587729095        2.82528238141274
C           -0.53241191525030        0.10854866523560        3.84480884564546
F           -1.37894006645554        1.09537447269735        4.21590403321400
F           -1.00042760836565       -0.39515255650501        2.68725288910999
C           -0.57841786110503       -1.01390422720376        4.91133454635663
F           -0.06962390273465       -0.59753979033715        6.07092580496998
F            0.13920511717788       -2.06468661693854        4.51462427203605
F           -1.81931575827965       -1.43208584538900        5.14362538137276
H            2.09369966456362        1.89629291994145        4.57461866046491
C           -5.74897218190068        2.24247202145038       -0.19338170790133
C           -5.10546566555044        3.44197633132252       -0.17245179377363
C           -3.68574964735276        3.52996601070484       -0.15364577862763
C           -3.01751480129131        4.75278530312192       -0.12785690381113
C           -1.62642046397641        4.82760598850123       -0.10678684090969
C           -0.86370693480589        3.63061102125478       -0.11401543514356
C            0.55033292049345        3.68493549258725       -0.09236932789151
C            1.30354446235537        2.49119524788157       -0.10039821937199
C            2.71353375230242        2.54425479627291       -0.07398260943014
C            3.37003455208870        3.80310000749090       -0.04308990707878
C            4.79627098901777        3.82070079233508       -0.01567119498797
C            5.51791777920090        2.67438078007000       -0.01427145556683
C            4.88609073900340        1.39547539513299       -0.03984954525407
C            5.61095809333553        0.20573629365681       -0.03372055803093
C            4.97940608200656       -1.03614670591888       -0.05208126634043
C            3.56136669563278       -1.09618042391087       -0.08198406658060
C            2.90137572102625       -2.34808440387475       -0.09355778470096
C            3.65298217471775       -3.55230806984391       -0.07592146020113
C            5.07628795327486       -3.46063651756928       -0.05228829100790
C            5.70793792247218       -2.26247275029252       -0.04103033986424
C            2.98510715293732       -4.77516703978010       -0.08245027692930
C            1.59414042636846       -4.84955187260248       -0.10438345159155
C            0.89628031992487       -6.09367380901218       -0.10757507071183
C           -0.45695097849478       -6.14592593081057       -0.12886226777802
C           -1.24827709966003       -4.95914122241416       -0.15020206869280
C           -0.58126978402981       -3.70579737772947       -0.14901633064358
C            0.83295510776136       -3.65123335418045       -0.12514089803327
C            1.49170270706077       -2.40343525356668       -0.12143680537060
C            0.73590933989344       -1.20357551209104       -0.14435540398055
C           -0.67290707110335       -1.25782413541106       -0.17139993406785
C           -1.33404089546618       -2.51241792886559       -0.17079811237688
C           -2.74394838651995       -2.56582067775395       -0.18741934217012
C           -3.40097955141241       -3.82433338743984       -0.18891305592737
C           -2.64078142465357       -4.99211154549342       -0.17203352402989
C           -4.82704734573724       -3.84292570335386       -0.20697267655218
C           -5.54934026201186       -2.69691047202230       -0.21747188342155
C           -4.91679398971125       -1.41904032000584       -0.21050363903356
C           -3.49885073891914       -1.36822765663434       -0.19787311657159
C           -2.84264934104712       -0.11873126338707       -0.19013895020650
C           -1.42529478576112       -0.06469953298836       -0.18072868710433
C           -0.76697806456261        1.18221594602595       -0.15583954801052
C           -1.52274306920850        2.38275287442143       -0.14418529809017
C           -2.93151389357900        2.32754363712093       -0.16173002463557
C           -3.59297434729943        1.07690325281116       -0.18462855762722
C           -5.00931304788853        1.00877720832124       -0.19814594128292
C           -5.64307613533712       -0.22967430301257       -0.21358586698781
C            0.64244475489201        1.23626986775060       -0.13234692122627
C            1.39411515067917        0.04329796198043       -0.12968462226593
C            2.81057515184047        0.09794878770998       -0.09667033412940
C            3.46749178298126        1.34621925131286       -0.07176015844530
C            2.60985451402685        4.97083801325249       -0.03986997159329
C            1.21701512354685        4.93823726150315       -0.06294872931523
C            0.42465521160636        6.12421312085816       -0.05840226356799
C           -0.92880937032729        6.07150540774567       -0.07907680229659
H           -5.67062438365274        4.36365710750632       -0.16787663686455
H           -3.59233131626530        5.66812272197271       -0.12336890975670
H            5.29056347333959        4.78113683200345        0.00412900675435
H            6.59761227606665        2.70531746490682        0.00681779498438
H            6.69095056336882        0.24684233047457       -0.01158021729901
H            5.64281732202477       -4.38054530972754       -0.04293413989488
H            6.78696339204323       -2.21110020680595       -0.02243889400365
H            3.56094360050930       -5.68995342863935       -0.06895919326461
H            1.48055649821649       -7.00230103014211       -0.09143120738157
H           -0.97010377682776       -7.09666166332586       -0.12997948352196
H           -3.14496238820941       -5.94831025289257       -0.17419502040971
H           -5.32117832059590       -4.80364477461241       -0.21062324426910
H           -6.62908239426848       -2.72693796493501       -0.22968484307683
H           -6.72231487981953       -0.26223026767633       -0.22500058301886
H            3.11342292479168        5.92706985165831       -0.01905153501218
H            0.93656406110342        7.07539198346524       -0.03823305437926
H           -1.51350930700621        6.97999172806990       -0.07561127065499
O           -7.10155674653229        2.13449086729563       -0.20974980504891
H           -7.51511724811893        3.01114367731301       -0.20157123123397
