85
 energy: -173.171578851891 gnorm: 0.000508271267 xtb: 6.6.1 (8d0f1dd)
O           -1.93306231215597       -0.49591495250156        3.21687078161908
S           -1.99857476863239        0.92216680585201        3.83525522455011
O           -2.67366038083749        1.82196096883029        2.96844173627161
O           -2.38050943247736        0.84398169990703        5.20844491928573
C           -0.19512366315510        1.44317996526436        3.81921119931215
F            0.04992299297790        2.16009818534596        2.72055097267953
F           -0.04535459067410        2.25746767439866        4.87886595942659
C            0.75814842081793        0.25332654088160        3.92772547614075
F            0.34347570153461       -0.56001360023213        4.90151256356538
F            2.01065909363555        0.60666490466125        4.20778852709028
F            0.77943988036740       -0.44759901381517        2.80165606788370
H           -2.20962141767202       -1.20532337336944        3.82352850451290
C           -5.63580484567801        2.12726164836708        0.18363211062671
C           -4.99384280840983        3.32727342434093        0.19200302595277
C           -3.57562479636023        3.41737873706256        0.13697133896591
C           -2.90865831724565        4.64051865220237        0.15786472392744
C           -1.51836930451066        4.71793820211085        0.11657439421199
C           -0.75588547098932        3.52346053081555        0.04669756571046
C            0.65748777979356        3.58014354589464        0.01819080873259
C            1.41148944280715        2.38892700369656       -0.04109264211042
C            2.82131983689307        2.44349170904061       -0.05795840607148
C            3.47784792356045        3.70182796124824       -0.01951431013184
C            4.90408897130699        3.72078310943508       -0.03859749711153
C            5.62670705159847        2.57635697200578       -0.09130288033357
C            4.99548882866268        1.29766894342403       -0.12915608087068
C            5.72081376277467        0.10933088612163       -0.18390910951001
C            5.09041676299836       -1.13280477366263       -0.21806711680131
C            3.67231160788507       -1.19478357102930       -0.19509084496194
C            3.01297793924221       -2.44706489289850       -0.22387278106916
C            3.76549937191938       -3.64967033907848       -0.28002636782814
C            5.18862547318440       -3.55585669750615       -0.30640326458170
C            5.81949444125822       -2.35757717090040       -0.27599325198508
C            3.09845645878093       -4.87273952434423       -0.30744921935525
C            1.70763905871600       -4.94907698462327       -0.27728897565904
C            1.01072037846523       -6.19363167752994       -0.30348134938352
C           -0.34226246337699       -6.24775700482091       -0.27039413467077
C           -1.13418776307526       -5.06273925588910       -0.20706319892224
C           -0.46825274346980       -3.80890978156566       -0.18308234720794
C            0.94570170493671       -3.75251110381586       -0.21831369506059
C            1.60323943004944       -2.50412573701832       -0.19499629072823
C            0.84639158187363       -1.30569916534999       -0.14281403186346
C           -0.56212265331785       -1.36155730990546       -0.10474487114563
C           -1.22169858216742       -2.61709210487346       -0.12364966925188
C           -2.63106653687226       -2.67249096255202       -0.08318925992478
C           -3.28695493507709       -3.93171821380797       -0.10405129802636
C           -2.52632583377554       -5.09782359675627       -0.16758368437391
C           -4.71248389419291       -3.95287918477463       -0.05795298251923
C           -5.43476801493627       -2.80854245666886        0.00772996729335
C           -4.80311620044450       -1.53012915772663        0.03049202991916
C           -3.38600651154081       -1.47623394627299       -0.01862956802521
C           -2.73145368569536       -0.22593437315716       -0.00458192856855
C           -1.31483043948283       -0.16985711526799       -0.05011752719540
C           -0.65845430841519        1.07788900111367       -0.03867960474425
C           -1.41466654496621        2.27624376534768        0.01871010777753
C           -2.82155756617721        2.21836466238295        0.06446779699521
C           -3.48123435363240        0.96776405402168        0.05475235332818
C           -4.89581250847086        0.89642257333822        0.11204630432850
C           -5.52895616399365       -0.34248639095707        0.09915795596798
C            0.75077802008904        1.13403561061232       -0.07206676386146
C            1.50321844254511       -0.05774651483191       -0.12269195726267
C            2.92042779864032       -0.00156911878570       -0.14382454942810
C            3.57672306283870        1.24728063468548       -0.11054383747416
C            2.71686361740834        4.86742622708061        0.03648106633098
C            1.32401671316871        4.83281993790249        0.05747352577266
C            0.53172044276226        6.01714180715447        0.12030013350277
C           -0.82149893285869        5.96219094589608        0.14810772252135
H           -5.55840495473996        4.24750871318250        0.24984003213856
H           -3.48319995140322        5.55433841265964        0.21526368380119
H            5.39782390451678        4.68120679585864       -0.00974368771208
H            6.70637717779846        2.60889298708521       -0.10573108213547
H            6.80067536957113        0.15247642619249       -0.20045222782827
H            5.75619693652393       -4.47389603439471       -0.35127175572750
H            6.89825296334764       -2.30405904982396       -0.29582437487337
H            3.67530378367714       -5.78562346059764       -0.35290453834982
H            1.59571135748851       -7.10047080547517       -0.35148679684588
H           -0.85421880109886       -7.19864893148592       -0.29142137495263
H           -3.02951743861483       -6.05398597793321       -0.18649876893474
H           -5.20603979257440       -4.91338075376389       -0.07686216389445
H           -6.51371384559018       -2.83973424720381        0.04219683820077
H           -6.60735573057813       -0.37548880439713        0.14016820827610
H            3.22005884399382        5.82360948734013        0.06666582549701
H            1.04334884246480        6.96826842561551        0.14749186465669
H           -1.40628785300152        6.86920700593619        0.19804157681250
O           -6.98690309381752        2.01547526176986        0.24054675820880
H           -7.40123775827333        2.89051625061456        0.28832683994004
