84
 energy: -169.092171953555 gnorm: 0.000940994520 xtb: 6.6.1 (8d0f1dd)
O           -2.23338175449070       -0.67097505335401        3.25720429040933
S           -1.76090296467987        0.72436039756843        3.71045641639041
O           -2.18413644390812        1.71292254951215        2.78507227621471
O           -2.01078176649356        0.92089461688091        5.10411265884339
C            0.10052082110322        0.56813459960543        3.50338697800757
F            0.36891754475657       -0.45668806806012        2.68364093357601
F            0.54809372096722        1.69350553543247        2.93263023823652
C            0.76211513106678        0.34565702941864        4.86399876178687
F            0.64194880409280        1.41967771460593        5.63426237178633
F            2.06206124410857        0.06212543763754        4.77343618099097
F            0.17892815452689       -0.68294460679542        5.47802076511691
H           -2.51544965624011       -1.28166240665610        3.96203317392316
C           -5.62290833409229        2.22123454991585        0.14941971089127
C           -4.98440519547948        3.41555732232992        0.14747661022329
C           -3.56172880303922        3.49973361775029        0.09065727992229
C           -2.88699148323636        4.71837414664625        0.10382859012484
C           -1.49625879403998        4.78544296186856        0.06398773706428
C           -0.74323206660537        3.58383822081831        0.00231083639685
C            0.67104545420808        3.63084362234332       -0.02948394439535
C            1.41671635728302        2.43455171869049       -0.08762019497078
C            2.82682584794462        2.47945849708030       -0.11505318673191
C            3.49171386083525        3.73351329851321       -0.08882604116587
C            4.91784435993341        3.74311369496700       -0.12079231402888
C            5.63251838018495        2.59367781155076       -0.17336362115666
C            4.99273825603365        1.31896758647335       -0.19829742142483
C            5.70983794921864        0.12548947926308       -0.25107449230327
C            5.07119602094109       -1.11265110626267       -0.27184845189987
C            3.65283604382545       -1.16513995889518       -0.23959178682687
C            2.98522644963453       -2.41325142243631       -0.25524726059475
C            3.72942099698507       -3.62131174947584       -0.30506660373078
C            5.15298835911444       -3.53700183943285       -0.34083338819717
C            5.79179908072502       -2.34269528357442       -0.32452963294831
C            3.05410658419218       -4.84000041740037       -0.31654029276966
C            1.66295471803064       -4.90689201245176       -0.27576563732155
C            0.95776058015342       -6.14696951951134       -0.28252246469674
C           -0.39529602773482       -6.19179005161792       -0.23760570601622
C           -1.17894810625860       -5.00104758635818       -0.18108233945513
C           -0.50476775547929       -3.75150858372990       -0.17739577414642
C            0.90922566078592       -3.70483719372138       -0.22452054554159
C            1.57536419957260       -2.46084750823957       -0.21843420989699
C            0.82682117703438       -1.25703273334041       -0.17359130814764
C           -0.58206456141403       -1.30324314617212       -0.12732359570545
C           -1.25012844853968       -2.55426902425020       -0.12549983959139
C           -2.65932987131432       -2.59970272589412       -0.07103529817289
C           -3.32333935713105       -3.85484050672734       -0.07149072916604
C           -2.57108895276149       -5.02639555766999       -0.12885499497166
C           -4.74865409171310       -3.86539185191253       -0.01254174345685
C           -5.46264082809464       -2.71565053119366        0.04417742951147
C           -4.82330516004416       -1.44021296837059        0.04442698477524
C           -3.40555645468905       -1.39805959261209       -0.01547928896370
C           -2.74244255345952       -0.15268679153250       -0.02257007455620
C           -1.32631940897626       -0.10602968634762       -0.07811824084789
C           -0.66209745014986        1.13804666394767       -0.07562183292565
C           -1.41006357811824        2.34140518786627       -0.02148133908748
C           -2.81856748082770        2.29315166459646        0.02561657477569
C           -3.48497722501966        1.04542838469053        0.02820957768574
C           -4.90185393585877        0.99191171889798        0.09302083956080
C           -5.54001084298336       -0.24671896693252        0.09955395813287
C            0.74744175779421        1.18416684361686       -0.11284607946299
C            1.49180206096628       -0.01320184308707       -0.16243816940069
C            2.90933749334727        0.03342331192351       -0.19075612905618
C            3.57387366487120        1.27813212771267       -0.16829089497186
C            2.73891196848419        4.90451767128166       -0.03389207283612
C            1.34616740372518        4.87937595644436       -0.00255416695439
C            0.56272032561642        6.06998954679466        0.05488392736512
C           -0.79065633769914        6.02500006935350        0.08634623739606
H           -6.70122778360024        2.17534440786113        0.19619264156640
H           -5.54462864419567        4.33815332099106        0.19360277497575
H           -3.45686256089989        5.63564486936959        0.15396647363013
H            5.41799861850627        4.70042471930558       -0.10193373880525
H            6.71220796219458        2.61899550566585       -0.19748081365292
H            6.78979819774107        0.16143017942151       -0.27604512668837
H            5.71430113498577       -4.45909238532220       -0.38075223168347
H            6.87073543786858       -2.29642100360757       -0.35112967477439
H            3.62460796864872       -5.75710828872427       -0.35670577367156
H            1.53647848554473       -7.05810803453249       -0.32460652404093
H           -0.91344398181024       -7.13954229277410       -0.24336320836637
H           -3.08048056754432       -5.97949965973506       -0.13298088707363
H           -5.24879915843091       -4.82270225521592       -0.01491650766047
H           -6.54155093507255       -2.74071522429450        0.08793993300740
H           -6.61924872562611       -0.28177011783526        0.14627933488929
H            3.24855389093390        5.85748785992565       -0.01439913787348
H            1.08143062543286        7.01738948606949        0.07334277349019
H           -1.36936370617772        6.93611265142433        0.13069846214913
