83
 energy: -163.921203878355 gnorm: 0.000890159238 xtb: 6.6.1 (8d0f1dd)
O            1.80607009584866        0.06906601566469        4.35294535669724
C            1.05731769070992       -0.60452589275113        3.53624760616307
O            1.32695033555523       -1.57895350555413        2.90203592826448
C           -0.36903132753417        0.04444009957556        3.48557199466862
F           -0.32500612360527        1.24602545521940        2.86532596333907
F           -1.21621039886527       -0.73490478878632        2.78481199245909
C           -0.95698246986827        0.24986341273556        4.90485158698588
F           -0.38295241113035        1.27378162990833        5.52863278726415
F           -0.76382772102754       -0.83859271848838        5.65629025976320
F           -2.26713707586741        0.48171024128481        4.86605221618970
H            2.72362509412846       -0.27266137635005        4.46581228905469
C           -5.72654406214325        2.27447149935799       -0.20954248312980
C           -5.09236698542400        3.47126873259128       -0.19625816989868
C           -3.66887979749298        3.56009904490523       -0.17372493353209
C           -2.99812701742729        4.78111839332873       -0.15387469186909
C           -1.60692977208558        4.85226519899027       -0.12722910438612
C           -0.84835203165394        3.65236320996029       -0.12348602799380
C            0.56569903060380        3.70366704139878       -0.09260550652049
C            1.31590670735961        2.50870616434929       -0.08530195244174
C            2.72571472159685        2.55854001921065       -0.04864301646738
C            3.38546093954639        3.81547312931059       -0.02515147718239
C            4.81151902263356        3.82962546887256        0.00875175587349
C            5.53069693033222        2.68186092707478        0.02206432863623
C            4.89603715921985        1.40444136297294        0.00258797994202
C            5.61762794179663        0.21258590300780        0.02066306665284
C            4.98368030020356       -1.02825870421880        0.00456173868705
C            3.56546469670649       -1.08573952736335       -0.03613120688465
C            2.90218694154606       -2.33605767020223       -0.04660273408247
C            3.65088413836727       -3.54162261184168       -0.01462238564350
C            5.07422451273166       -3.45285790220764        0.02087692000970
C            5.70910126070961       -2.25633464203050        0.02919798561221
C            2.98011543393687       -4.76262409366005       -0.01856037357506
C            1.58910499253187       -4.83346936228061       -0.05066551877676
C            0.88835009715833       -6.07591376389627       -0.05051718583246
C           -0.46496305427000       -6.12490827278364       -0.07824142503300
C           -1.25301207575447       -4.93626184643327       -0.10921072367557
C           -0.58282010295161       -3.68474734067767       -0.11347517843997
C            0.83121141352595       -3.63370305396939       -0.08450049199130
C            1.49313548932023       -2.38824231233605       -0.08491933942927
C            0.74049994175066       -1.18679964578004       -0.11655633044781
C           -0.66834548639252       -1.23739735934821       -0.14845906251076
C           -1.33277161835033       -2.49011732601345       -0.14384344629986
C           -2.74259847249593       -2.53965611546792       -0.16324114748654
C           -3.40276329853973       -3.79642055334651       -0.16009420212667
C           -2.64572626952841       -4.96582393412799       -0.13480192117169
C           -4.82895544557708       -3.81085879368362       -0.18219283085120
C           -5.54802920563866       -2.66315274406389       -0.20033155374441
C           -4.91285594034305       -1.38593498753564       -0.19813469081405
C           -3.49407937063458       -1.34043279130150       -0.18190514703873
C           -2.83448511806204       -0.09318994915270       -0.17998355868328
C           -1.41710421452196       -0.04196195493750       -0.16585567387583
C           -0.75714020020572        1.20439694790596       -0.14922127679631
C           -1.50999913390356        2.40642264149858       -0.14921128732157
C           -2.91986592798905        2.35406955519853       -0.17097312021688
C           -3.58258147550820        1.10325437351711       -0.18569011128188
C           -5.00103248836349        1.04630985465778       -0.20237764347290
C           -5.63487342273228       -0.19435505646317       -0.21023983323002
C            0.65213127084759        1.25544134895993       -0.11494254061867
C            1.40059835435413        0.05976178475908       -0.10004555907378
C            2.81784496954795        0.11111018644223       -0.05847156241645
C            3.47734976813644        1.35888632452728       -0.03554008615232
C            2.62804813932139        4.98476576210212       -0.03592737812741
C            1.23539812019927        4.95513135221254       -0.06730483358714
C            0.44682315949799        6.14371164414198       -0.07526106186996
C           -0.90647638049017        6.09467680117426       -0.10313676850341
H           -6.80566916350454        2.22492021414901       -0.22504260226057
H           -5.65725871472466        4.39218710702814       -0.20105242875764
H           -3.57236791279837        5.69695984367598       -0.15724096958608
H            5.30784028962948        4.78902088674242        0.02359447721158
H            6.61026291485857        2.71065647280905        0.04776221269301
H            6.69738419671500        0.25162789965381        0.04868714250759
H            5.63843345069762       -4.37391884700606        0.04114919185222
H            6.78794644336848       -2.20707216344878        0.05598400332501
H            3.55332721190469       -5.67879197861991        0.00639675716253
H            1.47005966075721       -6.98600470484749       -0.02621072740784
H           -0.98063108264615       -7.07430378294805       -0.07648869065328
H           -3.15237747788907       -5.92076059065916       -0.13258645396183
H           -5.32592412958534       -4.77016719308587       -0.18273645655522
H           -6.62793175781058       -2.69159913340158       -0.21568652736333
H           -6.71507760893062       -0.23337772892290       -0.22343121871331
H            3.13370545731499        5.93993657184460       -0.01859364894238
H            0.96147836092372        7.09341754897912       -0.05718581085366
H           -1.48915391161750        7.00443664829884       -0.10759645145194
