84
 energy: -169.090873191907 gnorm: 0.000765856523 xtb: 6.6.1 (8d0f1dd)
O           -1.12436589859208       -1.95256464451131        3.41068869287114
S           -2.20727046118882       -0.97876321686427        3.93620155088054
O           -3.28912650366060       -0.87947244461126        3.02098103972412
O           -2.47548585030780       -1.23444578923499        5.31480935244990
C           -1.31197664902831        0.67028001905791        3.85527677383360
F           -1.74460420479550        1.33696198311350        2.78296536140082
F           -1.69971851394190        1.35641128423243        4.94460430464351
C            0.21022573579877        0.53032561857962        3.84226485052712
F            0.59313779654003       -0.24933268128500        4.85491999788148
F            0.84132147010257        1.69622456434768        3.97302007766117
F            0.63431532895320       -0.03123503759215        2.71871340535864
H           -0.86336120961430       -2.65249484242987        4.03644324121230
C           -5.54190735401157        2.28640250303043        0.23803841867442
C           -4.91149919627448        3.48470726955768        0.20079522938330
C           -3.49050400446857        3.57602111896611        0.11676232244702
C           -2.82280213830722        4.79866402875039        0.08674385456542
C           -1.43339581523744        4.87307455835540        0.01562645227453
C           -0.67399234044529        3.67445191926720       -0.03025712496142
C            0.73929907929628        3.72859846490054       -0.09296024684964
C            1.49075703824526        2.53488360455097       -0.13525832388074
C            2.89983377503466        2.58742479435329       -0.19495884977298
C            3.55711269763487        3.84562855719772       -0.21395159867383
C            4.98223188781852        3.86268208095027       -0.27529811635255
C            5.70259625619471        2.71627143636832       -0.31534852092366
C            5.07020568404461        1.43772052120244       -0.29832655770877
C            5.79339038479869        0.24745583410841       -0.34081439400217
C            5.16184904461810       -0.99445563565606       -0.32226203128684
C            3.74487367700172       -1.05417698524924       -0.25726661315539
C            3.08453155354294       -2.30600919329815       -0.23285618922023
C            3.83470148945642       -3.51062576737592       -0.27729059042627
C            5.25667872121362       -3.41920326050449       -0.34626325393126
C            5.88861461127822       -2.22125766594761       -0.36652015620606
C            3.16645745934073       -4.73305116672723       -0.25207418635239
C            1.77686103593853       -4.80677513456213       -0.17910017665731
C            1.07910786099450       -6.05072705457732       -0.14915377708321
C           -0.27227073238198       -6.10213773692204       -0.07083485159734
C           -1.06147646447601       -4.91484957139108       -0.01667515642478
C           -0.39524418295349       -3.66160632699563       -0.05246614939215
C            1.01722815798519       -3.60812934560226       -0.13178058897546
C            1.67609499597667       -2.36068562058431       -0.16259154090492
C            0.92152437986778       -1.16048613706388       -0.12396896366602
C           -0.48582475003387       -1.21407808982571       -0.04980715639688
C           -1.14674413171089       -2.46795973295009       -0.00845075004717
C           -2.55439125336910       -2.51986196321238        0.07300548191563
C           -3.20980998156258       -3.77829114379904        0.11993156834271
C           -2.45171327100950       -4.94658288624064        0.07242523645050
C           -4.63298282060733       -3.79575686890419        0.21185535754156
C           -5.35265234293908       -2.64900657933077        0.24934100174824
C           -4.72203582918739       -1.37108722443659        0.19775928849931
C           -3.30730640151346       -1.32257745010694        0.10693213388119
C           -2.65181597217328       -0.07486167933993        0.06067783087094
C           -1.23677406856275       -0.02089504361853       -0.01591863416162
C           -0.57912523585318        1.22665759001861       -0.05129636984015
C           -1.33342881974438        2.42714546220353       -0.00914755535717
C           -2.74130057092588        2.37144845706658        0.06681270920372
C           -3.40049048667136        1.11957763603502        0.10286169267521
C           -4.81528561155506        1.05972963962788        0.19303654946776
C           -5.44504256653379       -0.18172527263155        0.23804125699494
C            0.82893205063402        1.28028873298267       -0.11615043565396
C            1.57923099425138        0.08653907227035       -0.15521200639802
C            2.99512181959259        0.14075488535961       -0.21676457037566
C            3.65260213674194        1.38931302101734       -0.23672182474854
C            2.79843298071279        5.01356160627754       -0.17346926569597
C            1.40675386749899        4.98148206399338       -0.11334359140859
C            0.61684949827409        6.16853149717377       -0.07152479372083
C           -0.73529815091297        6.11684021868461       -0.00995833872728
H           -6.61891291679138        2.23473298420141        0.30472084534941
H           -5.47716106733593        4.40436385718175        0.23686724646234
H           -3.39766511402273        5.71324927608362        0.12347853828128
H            5.47678535254242        4.82297712803369       -0.28930711226172
H            6.78140136326463        2.74726400989517       -0.36205105540103
H            6.87230153072290        0.28898833129016       -0.38999744981597
H            5.82241534892007       -4.33872772922393       -0.38150711152078
H            6.96638367863272       -2.16958435438760       -0.41802015071010
H            3.74107410910714       -5.64759757540950       -0.28923387974834
H            1.66163995096167       -6.95933785237074       -0.19076319889634
H           -0.78528260692245       -7.05235726290477       -0.04899471061935
H           -2.95593397898635       -5.90197818295912        0.10241439330835
H           -5.12727569484954       -4.75551795992386        0.25090054623967
H           -6.43019120884034       -2.67889077775643        0.32056160562927
H           -6.52271292003412       -0.22253464562469        0.31249200942949
H            3.30235163567637        5.96959369774954       -0.18930712345214
H            1.12972207729085        7.11907878537387       -0.08982846229264
H           -1.31878922415224        7.02538342051636        0.02208328758323
