84
 energy: -168.001765425929 gnorm: 0.000863416960 xtb: 6.6.1 (8d0f1dd)
O            1.81967740788122        0.07504080764742        4.34366952565682
C            1.06572335575517       -0.60242236222813        3.53488288665857
O            1.33051722126904       -1.58046606535380        2.90485847548887
C           -0.36064399901776        0.04678008867107        3.48946538788218
F           -0.31933812567884        1.24942845381544        2.87177387846181
F           -1.20950968526311       -0.73181125238378        2.78962608549850
C           -0.94512920373151        0.24739832770491        4.91097601132621
F           -0.36813188070679        1.26639573976163        5.53840146053917
F           -0.75335267454551       -0.84421335044110        5.65634374521053
F           -2.25458195789491        0.48312246675802        4.87584424702169
H            2.73663781243598       -0.26873183752546        4.45379800146211
C           -5.75294555414566        2.24340367715753       -0.20199127548789
C           -5.11099358852509        3.44389588629973       -0.18957290686351
C           -3.69135182807074        3.53385312678148       -0.16933290381029
C           -3.02458957826349        4.75762511517529       -0.15099447042716
C           -1.63364414179527        4.83418252058084       -0.12484694842996
C           -0.86946605969956        3.63823294167429       -0.12015622642834
C            0.54391518341929        3.69473264580229       -0.08965443992132
C            1.29842674432112        2.50245747767818       -0.08176584662559
C            2.70793237978577        2.55749406252105       -0.04682590790561
C            3.36327417951498        3.81694320497519       -0.02557584123893
C            4.78934482637614        3.83613554796039        0.00512876213362
C            5.51270113602850        2.69101055855561        0.01803021213429
C            4.88253819020493        1.41123755222530        0.00127087488815
C            5.60840470917647        0.22202602215241        0.01881702371038
C            4.97885753845335       -1.02114508395232        0.00403078213523
C            3.56079895122647       -1.08372148944824       -0.03448779483893
C            2.90194414071678       -2.33640084048120       -0.04486985582538
C            3.65517761304022       -3.53923192316884       -0.01508101146486
C            5.07818198218035       -3.44538619494610        0.01922272725531
C            5.70875284868076       -2.24656645376881        0.02759800275391
C            2.98896401037840       -4.76279390699875       -0.02007298254500
C            1.59829634374340       -4.83869471787634       -0.05117985427066
C            0.90219312842914       -6.08382057003859       -0.05281371257207
C           -0.45086419616687       -6.13782735055367       -0.07977983998121
C           -1.24343128983130       -4.95199761698833       -0.10830094852596
C           -0.57792308055982       -3.69787910968472       -0.11087486464338
C            0.83587767109262       -3.64164818142070       -0.08245149050230
C            1.49298151466746       -2.39365992888055       -0.08165152092035
C            0.73572228312685       -1.19495728809760       -0.11170239025050
C           -0.67295867202178       -1.25058515129958       -0.14346298608074
C           -1.33233188712378       -2.50603324100554       -0.13975493511618
C           -2.74188379288184       -2.56091309535786       -0.15965907699475
C           -3.39744866679826       -3.82012367019560       -0.15779021976501
C           -2.63582048924134       -4.98685772349725       -0.13365194803879
C           -4.82341261104623       -3.84071856324385       -0.18054882423256
C           -5.54709194422415       -2.69566692305571       -0.19849778318139
C           -4.91601902614538       -1.41708244648226       -0.19505231002812
C           -3.49820734494905       -1.36437144961394       -0.17796287872371
C           -2.84398537280513       -0.11396358092888       -0.17533913308763
C           -1.42638984329169       -0.05783414436112       -0.16076762875780
C           -0.77015810262262        1.19044387132823       -0.14423433504781
C           -1.52698779768071        2.38992171257851       -0.14487049157398
C           -2.93543561107950        2.33249929251950       -0.16648566310502
C           -3.59541247071270        1.08083133163082       -0.18091055949165
C           -5.01167285671585        1.01070792310424       -0.19717421225260
C           -5.64374495783193       -0.22865425471822       -0.20628134758061
C            0.63891682765056        1.24676236292777       -0.11016476392232
C            1.39163225309837        0.05387616237392       -0.09526137792390
C            2.80875607449587        0.11040943351632       -0.05538545081634
C            3.46388529954967        1.36054455543242       -0.03411961251564
C            2.60162842702105        4.98343300556062       -0.03590259128733
C            1.20900238338048        4.94869107610748       -0.06564963987140
C            0.41537776229822        6.13375783647672       -0.07377874589470
C           -0.93785297342848        6.07917812444671       -0.10155913801560
H           -5.67725964458365        4.36491966485715       -0.19227084581082
H           -3.60056329868601        5.67230621114162       -0.15486622460202
H            5.28236041322807        4.79738891647351        0.01753029389087
H            6.59228431451247        2.72369165457486        0.04097036238287
H            6.68810690745392        0.26491825660254        0.04495432023927
H            5.64577842289330       -4.36446127527355        0.03843165134338
H            6.78748294381327       -2.19342562968772        0.05344456331811
H            3.56570234740572       -5.67685147305105        0.00299199009220
H            1.48741931003417       -6.99173874119003       -0.03067537443046
H           -0.96305935567184       -7.08911315171483       -0.07955540063747
H           -3.13896001578129       -5.94362067930693       -0.13247188599909
H           -5.31635333017289       -4.80207691788809       -0.18191406853414
H           -6.62679133704655       -2.72683094325109       -0.21461968729292
H           -6.72293056301075       -0.26251467940670       -0.21980879440818
H            3.10390604182288        5.94051784106172       -0.01983854018030
H            0.92597974260143        7.08575350796644       -0.05601959993825
H           -1.52363719360504        6.98704586995421       -0.10639905607371
O           -7.10536046451331        2.13344420444884       -0.21803333075445
H           -7.52025696711817        3.00951514514138       -0.21766735342249
