84
 energy: -168.001269479438 gnorm: 0.000885485235 xtb: 6.6.1 (8d0f1dd)
O            1.14342629607890        0.74476300650647        5.17944360958813
C            0.31914532847872       -0.24819187719760        5.07857392875671
O            0.08300207696929       -1.10943220938346        5.87162436808228
C           -0.40497429894051       -0.18144180911345        3.69132627792119
F            0.50020481561068       -0.25310315828057        2.69194390632150
F           -1.24249299682500       -1.22745879570547        3.53963773896417
C           -1.21095486550403        1.13853000201838        3.54700750023060
F           -0.45856555859579        2.10738460447763        3.03777016353336
F           -1.64419011656485        1.55923243788814        4.74351624114789
F           -2.28080881071124        0.98918602155137        2.77703216362512
H            1.65837153290778        0.77557383909866        6.02015061391606
C           -5.69679091053333        2.16630866013832        0.05211886778906
C           -5.05592802959993        3.36708910498552        0.07618179508018
C           -3.63656434720092        3.45908610817594        0.05071424958100
C           -2.97064838249101        4.68313097880642        0.08001557397082
C           -1.57978769256874        4.76195445397263        0.05652115004527
C           -0.81458338747541        3.56807094948111        0.00081950477682
C            0.59890655035620        3.62632690162204       -0.02149626732322
C            1.35436786555004        2.43595172547970       -0.07571432266960
C            2.76393150817277        2.49299952620620       -0.10000785013538
C            3.41800465108918        3.75286182413350       -0.07333507241343
C            4.84408647923800        3.77451757945731       -0.10322342378693
C            5.56846249400090        2.63110997422313       -0.15394939107173
C            4.93941591599341        1.35093069389028       -0.17965651071569
C            5.66673491450572        0.16361838005442       -0.23060102000652
C            5.03848070079589       -1.07995514277225       -0.25154933655896
C            3.62051443997379       -1.14424621193143       -0.22311499874925
C            2.96350953904690       -2.39799916513127       -0.23843996583483
C            3.71801087710623       -3.59985298876414       -0.28084709583536
C            5.14087074818463       -3.50364949596215       -0.31415218713482
C            5.76953218937939       -2.30390191772128       -0.30056991421027
C            3.05313075257946       -4.82436284753793       -0.28831254408912
C            1.66253805240955       -4.90300062125643       -0.25530649590700
C            0.96795857105306       -6.14898516863576       -0.25979067963191
C           -0.38497723526544       -6.20499941912505       -0.23066717081197
C           -1.17946190809981       -5.02069815701878       -0.19311365002281
C           -0.51575062321693       -3.76575603011798       -0.18551590133466
C            0.89820169713866       -3.70712186300084       -0.21681610885759
C            1.55381805933902       -2.45752194052014       -0.20974688451926
C            0.79510660006809       -1.25968330604807       -0.17291849457886
C           -0.61388786723148       -1.31823532644269       -0.14278275989840
C           -1.27185799660318       -2.57486089038405       -0.14822755730741
C           -2.68133181537962       -2.63206579762846       -0.11791124447466
C           -3.33488565811006       -3.89221780680575       -0.12789679588352
C           -2.57171602280584       -5.05752518143481       -0.16525318567108
C           -4.76069348147123       -3.91482079595938       -0.10097183680255
C           -5.48561746380346       -2.77101791634124       -0.06529277983398
C           -4.85640043276320       -1.49158983228565       -0.05227186630360
C           -3.43898445659048       -1.43667105787185       -0.08063436919564
C           -2.78653448354354       -0.18545773598914       -0.07198075941380
C           -1.36906701448471       -0.12712094261421       -0.10261398241488
C           -0.71314695378405        1.12176524857920       -0.08443728686689
C           -1.47164015312702        2.31955611108535       -0.03220170125825
C           -2.88007656758578        2.25967993260426       -0.00626286139829
C           -3.53895798674851        1.00776518324999       -0.02794131860087
C           -4.95430652944784        0.93532567304037        0.00285318802656
C           -5.58510095018192       -0.30456849406713       -0.01248977712495
C            0.69604049386828        1.18007086723617       -0.10734826890983
C            1.44997897080202       -0.01066786155252       -0.15608556343475
C            2.86674399646903        0.04784189354649       -0.17732415951465
C            3.52085414703668        1.29799058407308       -0.15242150802198
C            2.65538980861931        4.91764404022342       -0.02066820877286
C            1.26281043610578        4.88071883741352        0.00707026158889
C            0.46818387887028        6.06394044851368        0.06079385738978
C           -0.88498596861878        6.00740951689649        0.08508518838792
H           -5.62264540099386        4.28697871836313        0.11663145046803
H           -3.54738418472038        5.59629866887825        0.12315183837447
H            5.33630890831546        4.73601721842308       -0.08456304815601
H            6.64800894357148        2.66532901042283       -0.17649685692235
H            6.74649315545766        0.20807685305324       -0.25373956837688
H            5.70944492327453       -4.42155499944631       -0.35079933800094
H            6.84817803750671       -2.24915932256665       -0.32637904663187
H            3.63108328052863       -5.73729831998264       -0.32012515244041
H            1.55459224893501       -7.05578743968407       -0.28764575204635
H           -0.89581281902452       -7.15692823397387       -0.23495066584598
H           -3.07341607540042       -6.01493325912148       -0.17300502593379
H           -5.25214517189652       -4.87681704709684       -0.11012262246488
H           -6.56511686705012       -2.80374873603334       -0.04513424462809
H           -6.66404422910833       -0.34021224755042        0.00985615521682
H            3.15690358093187        5.87502124558182       -0.00163983406434
H            0.97804276997255        7.01621134142314        0.08136685701108
H           -1.47178089284589        6.91365619735367        0.12601291184059
O           -7.04886103174421        2.05436842136149        0.07362624876453
H           -7.46473538917621        2.92947051188002        0.10529604503561
