85
 energy: -173.172849268806 gnorm: 0.000422516854 xtb: 6.6.1 (8d0f1dd)
O           -2.26655555264428       -0.71863582999573        3.26684459691422
S           -1.84778227913947        0.69535951119572        3.71648516351321
O           -2.31706165493929        1.66802556819586        2.79608444886321
O           -2.09601950354714        0.88159026739510        5.11206080586501
C            0.01665076376115        0.61244005542127        3.49676261853258
F            0.32079266448067       -0.39794822847794        2.67185033591789
F            0.41579736800342        1.75665506493518        2.92775286871207
C            0.69468704760653        0.41087096313151        4.85263845305979
F            0.54238100256540        1.47899508636112        5.62544259530904
F            2.00299454487858        0.17258092463578        4.75229128809299
F            0.15186156085288       -0.63790618854836        5.46949319758211
H           -2.53266109118884       -1.33556952813773        3.97189519308569
C           -5.63474292453118        2.19296105493057        0.14638958024343
C           -4.98788897018692        3.39047071642270        0.14289260890733
C           -3.56893571751443        3.47431896693381        0.08865180389830
C           -2.89698373964553        4.69499266891351        0.10274687022974
C           -1.50640269919169        4.76626926012909        0.06369169072797
C           -0.74884078430694        3.56793843708067        0.00220260508842
C            0.66473915238988        3.61877218888230       -0.03036347924782
C            1.41364841355572        2.42445032745594       -0.08902011405890
C            2.82347554867529        2.47336162129961       -0.11937840007993
C            3.48496257701264        3.72937469353039       -0.09555513265994
C            4.91088823134240        3.74281327155736       -0.13244307188779
C            5.62861297622532        2.59536831471740       -0.18667560752197
C            4.99232674794078        1.31884150826014       -0.20818784407436
C            5.71251741585074        0.12735818221468       -0.26231046948202
C            5.07718054687354       -1.11256037522182       -0.28092687203189
C            3.65910612935390       -1.16894239042599       -0.24490400613369
C            2.99476483839975       -2.41879957505571       -0.25980300175704
C            3.74220348863504       -3.62471824278843       -0.31252807698055
C            5.16537675286082       -3.53656719172310       -0.35140791587950
C            5.80100303857271       -2.34053460305956       -0.33592885329087
C            3.07025029091508       -4.84530030985954       -0.32464363433285
C            1.67944906533207       -4.91603611828186       -0.28218428360763
C            0.97765998653903       -6.15806339622146       -0.29108683728638
C           -0.37513170967622       -6.20670747320286       -0.24436931649181
C           -1.16200487960559       -5.01818361846921       -0.18421438793871
C           -0.49128299764805       -3.76671608885911       -0.17934389596138
C            0.92248017611130       -3.71611836287824       -0.22771675943903
C            1.58504046041441       -2.47023148731102       -0.22054956162354
C            0.83308800616215       -1.26852753686089       -0.17365738771596
C           -0.57569390779722       -1.31855898860306       -0.12717251818798
C           -1.23994610736756       -2.57160247579929       -0.12588286397622
C           -2.64894427555738       -2.62105591203803       -0.07104668262941
C           -3.30948963208879       -3.87802643211891       -0.07161010550873
C           -2.55379868425193       -5.04755391327951       -0.13039438139076
C           -4.73457792780628       -3.89340804248810       -0.01207136541480
C           -5.45212512948105       -2.74564838869366        0.04472306396788
C           -4.81576873234676       -1.46939580147258        0.04433844157368
C           -3.39893407408682       -1.42142220645627       -0.01562976418463
C           -2.74000053520344       -0.17351987156989       -0.02333330016677
C           -1.32358609710935       -0.12331426976216       -0.07814706360551
C           -0.66190901194392        1.12211171444054       -0.07537557647619
C           -1.41281342924763        2.32364265651130       -0.02136700212724
C           -2.82001866865771        2.27167349262221        0.02353203168667
C           -3.48471787532476        1.02371518784619        0.02606211460021
C           -4.89938249409103        0.95834608056366        0.09028314190174
C           -5.53701264280836       -0.27831308362066        0.09873726696009
C            0.74758589822353        1.17223349712007       -0.11299759512451
C            1.49505577766944       -0.02304337463618       -0.16309557275198
C            2.91238097669212        0.02753351932118       -0.19414613654634
C            3.57365730574446        1.27405191834890       -0.17391029754419
C            2.72901889643886        4.89821510290695       -0.03869273914566
C            1.33638740627509        4.86920750835953       -0.00452074723639
C            0.54903402727024        6.05699464644745        0.05410434354462
C           -0.80431201705287        6.00771934236844        0.08633436285077
H           -5.54857383407518        4.31367497576564        0.18967082818026
H           -3.46778577445187        5.61156413286884        0.15321709222311
H            5.40844045164167        4.70157117434091       -0.11645131461277
H            6.70813930113819        2.62368055265603       -0.21505130333832
H            6.79231298444282        0.16623855572518       -0.29046943326910
H            5.72905628467253       -4.45712938508135       -0.39351739450029
H            6.87974402531509       -2.29126963835548       -0.36539358131481
H            3.64324564346791       -5.76074504494711       -0.36719173364079
H            1.55887826903841       -7.06744596630722       -0.33661602564662
H           -0.89080597189028       -7.15578597036773       -0.25198762500660
H           -3.06059139116395       -6.00199274888277       -0.13481811524870
H           -5.23159868511355       -4.85230420505255       -0.01439565164631
H           -6.53085038121619       -2.77236930290473        0.08862960345939
H           -6.61530645299878       -0.30669720540449        0.14601467152337
H            3.23609539489630        5.85263653258481       -0.02041856630809
H            1.06461632973732        7.00616947263248        0.07253611921764
H           -1.38531185490332        6.91741004507405        0.13132149090917
O           -6.98643035114725        2.08720581504392        0.20271238719174
H           -7.39782811648398        2.96440412143529        0.23418410427478
