83
 energy: -163.920729708841 gnorm: 0.000522596883 xtb: 6.6.1 (8d0f1dd)
O            1.14639874881006        0.76166129439605        5.16492254682713
C            0.33262552927333       -0.23991114687781        5.06241122084113
O            0.11090709340780       -1.10982738661302        5.85022008991136
C           -0.40066858324812       -0.17039765497426        3.68039704908767
F            0.49966509119526       -0.22713224837086        2.67579922749761
F           -1.22926384937851       -1.22296318613637        3.52520880402265
C           -1.21871407597734        1.14327304816618        3.54710756369350
F           -0.47706639070215        2.11938111984064        3.03724569720960
F           -1.64745574450294        1.55558756020045        4.74739515160672
F           -2.29172226851252        0.98822652893283        2.78277813216040
H            1.66628653922578        0.79327211103916        6.00258744010471
C           -5.67191914396210        2.19398939068670        0.06092284536362
C           -5.03906885548875        3.39125899224320        0.08254703222023
C           -3.61582965040571        3.48234390379969        0.05577743707945
C           -2.94601784185538        4.70368939936699        0.08685857613041
C           -1.55484408006858        4.77720476170450        0.06496127702686
C           -0.79516670656425        3.57948756632985        0.00680576487410
C            0.61901337639124        3.63271217073081       -0.01459457391687
C            1.37027595344625        2.43988689807373       -0.07273886283021
C            2.78016415819918        2.49194882911630       -0.09735350402077
C            3.43865073210555        3.74926294278746       -0.06638124203315
C            4.86476392243276        3.76621388352488       -0.09873514191111
C            5.58503914863357        2.62044404362358       -0.15514827056461
C            4.95154300587971        1.34254474651891       -0.18256354729869
C            5.67477241419433        0.15272169261616       -0.23549119522900
C            5.04227876154139       -1.08867980154572       -0.25551358823115
C            3.62405990329121       -1.14808392723216       -0.22664263332062
C            2.96281652050789       -2.39960461202329       -0.24169208501454
C            3.71308618503707       -3.60413476714976       -0.28353916294009
C            5.13634969088396       -3.51284204097781       -0.31560834776266
C            5.76912485536830       -2.31524640623477       -0.30309369694217
C            3.04381018384472       -4.82620050413219       -0.29199655421012
C            1.65281049269843       -4.89993918743071       -0.25939950291745
C            0.95376213579211       -6.14335215591883       -0.26549716985361
C           -0.39938252740075       -6.19459153970081       -0.23331234662062
C           -1.18948946876156       -5.00763639413506       -0.19141009435290
C           -0.52138421916502       -3.75511921857645       -0.18548286227685
C            0.89277693966735       -3.70143493445288       -0.21936236515225
C            1.55297477423791       -2.45424290014986       -0.21271246824052
C            0.79866889468614       -1.25374535941438       -0.17545073634303
C           -0.61044183346285       -1.30750396145622       -0.14329420696348
C           -1.27318975708469       -2.56156037648566       -0.14662373235173
C           -2.68284991011127       -2.61371676764219       -0.11198180281488
C           -3.34072141961507       -3.87163733119583       -0.11818109857845
C           -2.58197705889450       -5.03948868752744       -0.15795253340151
C           -4.76666349549268       -3.88846190460930       -0.08537361328995
C           -5.48716083395098       -2.74211619399448       -0.04868189317788
C           -4.85414549718268       -1.46384445705205       -0.04030003128429
C           -3.43584383589083       -1.41577388294374       -0.07373042987383
C           -2.77829999050329       -0.16754338641331       -0.06835728208153
C           -1.36109898137687       -0.11385835816549       -0.10190283736471
C           -0.70162944752898        1.13319457885152       -0.08363880335353
C           -1.45629609272130        2.33336445978136       -0.02902240566836
C           -2.86615776492766        2.27834596553656       -0.00226352108447
C           -3.52760632120943        1.02715908436774       -0.02331533480364
C           -4.94512634203856        0.96761461435728        0.01158986348351
C           -5.57737367642964       -0.27378909527931       -0.00015650418343
C            0.70771711183728        1.18646417761391       -0.10759650426946
C            1.45754804574965       -0.00691430295845       -0.15854681148961
C            2.87447337375326        0.04662079612347       -0.18022970016821
C            3.53287901833269        1.29444355244579       -0.15370152468282
C            2.68017311420132        4.91657572169253       -0.00808589945198
C            1.28751064888404        4.88454905550594        0.01916840297192
C            0.49785831900892        6.07108422896414        0.07661232368186
C           -0.85544007986906        6.02002084094997        0.09838940578425
H           -6.75080818965305        2.14258055592908        0.08355809813254
H           -5.60459076412132        4.31093575289852        0.12268951495476
H           -3.52110894170282        5.61793797259422        0.13106587179499
H            5.36029239217016        4.72589421608517       -0.07778526524045
H            6.66460158174549        2.65102954319532       -0.18043860981613
H            6.75462477017399        0.19351481580064       -0.26013361595239
H            5.70179435917910       -4.43272351020152       -0.35039218558810
H            6.84794256083920       -2.26426157676945       -0.32816110305776
H            3.61843940075039       -5.74120427270955       -0.32404917713124
H            1.53699591315659       -7.05219929519243       -0.29701452843479
H           -0.91351347058950       -7.14472922816650       -0.23859445421422
H           -3.08695570470695       -5.99522376153384       -0.16309756534261
H           -5.26195411523590       -4.84857695701955       -0.09094569902099
H           -6.56680017179439       -2.77245032486715       -0.02412557067727
H           -6.65724765698072       -0.31485536315944        0.02592458898312
H            3.18502789595103        5.87200366069564        0.01541721325716
H            1.01168957176731        7.02102266354506        0.10163605191855
H           -1.43919936919401        6.92805022672304        0.14139900618524
