83
 energy: -163.921729601202 gnorm: 0.000133995036 xtb: 6.6.1 (8d0f1dd)
O            2.03855855427348        1.60716338292500        4.44324984702909
C            1.68636809941418        0.71203705138764        3.57413597893634
O            2.37572046294534       -0.01882282026274        2.92995095390842
C            0.12310378445554        0.67822522766799        3.46615515238176
F           -0.34059333455049        1.81732506971333        2.90218091217585
F           -0.27090111524161       -0.34477800899746        2.68291171328517
C           -0.54932546254768        0.51299832084065        4.85215169087187
F           -0.46952979055986        1.62696717045618        5.57234894286866
F            0.04446490564452       -0.45986751127901        5.54933541417886
F           -1.83701231237689        0.19585575104541        4.73859035414047
H            3.00947240958118        1.69515525993933        4.58892274617928
C           -5.80462849490137        2.14054029317962       -0.16230192937568
C           -5.17459924278387        3.33677788040726       -0.08024334282086
C           -3.75173342275320        3.42842744139791       -0.03745141424508
C           -3.08551582220329        4.64878129626236        0.05156988499063
C           -1.69496996608027        4.72250085792640        0.09585245288595
C           -0.93245996150142        3.52627639878445        0.04582232561775
C            0.48091852451928        3.58005657734286        0.09416839761409
C            1.23536804432859        2.38838557211557        0.04666800793078
C            2.64470389224543        2.43983362612729        0.10349664364147
C            3.29925903170534        3.69631022633708        0.20099248347383
C            4.72478480909864        3.71277461444997        0.25583984085987
C            5.44735582526903        2.56740621540884        0.22291367581128
C            4.81759915552697        1.29055661107445        0.13032545546103
C            5.54299621066787        0.10153484115010        0.10356642367920
C            4.91326821143006       -1.13826070037543        0.01816439469964
C            3.49665546185956       -1.19697558461778       -0.04677138925917
C            2.83833667439832       -2.44702146954040       -0.12694459954664
C            3.59045515355267       -3.65093418093765       -0.14568868641146
C            5.01275115642631       -3.56042286027384       -0.08463655989804
C            5.64259427366551       -2.36391605097527       -0.00586113091557
C            2.92397286882783       -4.87219305239636       -0.22123947080704
C            1.53363565847084       -4.94573131923034       -0.27491312499905
C            0.83707710998456       -6.18850860445342       -0.34716064527904
C           -0.51567099287885       -6.23999000754214       -0.39322788753132
C           -1.30766842181566       -5.05374159285467       -0.37235821078871
C           -0.64185301314353       -3.80168676807354       -0.30435963557495
C            0.77185266354654       -3.74786504683364       -0.25572476750282
C            1.42963208762921       -2.50148571764682       -0.18462369283804
C            0.67320412592310       -1.30215168975290       -0.16663885155803
C           -0.73516678548698       -1.35553281683311       -0.21406150321630
C           -1.39548975707169       -2.60890238162697       -0.28119158612596
C           -2.80507131778657       -2.66170565553950       -0.32093095015112
C           -3.46082719723010       -3.91902693034311       -0.38914243675725
C           -2.69997978247691       -5.08597485138214       -0.41451987255501
C           -4.88667099262229       -3.93627960320097       -0.42765399823044
C           -5.60940149165380       -2.79109628948113       -0.39743963350263
C           -4.97884235906733       -1.51363016842499       -0.32463342506958
C           -3.56049904442513       -1.46503938495367       -0.28835014997476
C           -2.90495042839106       -0.21752113815646       -0.21558486789960
C           -1.48800727292756       -0.16333057145100       -0.18185322746453
C           -0.83232634307029        1.08274446855420       -0.10120659086235
C           -1.58926128866328        2.28123837987454       -0.04957827357472
C           -2.99872814166907        2.22597990369192       -0.08753217232764
C           -3.65713365127776        0.97569210840128       -0.17191293557065
C           -5.07511086584530        0.91560340017289       -0.20861334204979
C           -5.70464678742998       -0.32488538106383       -0.28639006198938
C            0.57665523652468        1.13581801894485       -0.05360136995994
C            1.32950570582064       -0.05653555458790       -0.08793705544302
C            2.74533675486089       -0.00339897114753       -0.02548794023944
C            3.40004374468137        1.24288301853686        0.06697071766802
C            2.53787632562128        4.86247925551519        0.24116346382455
C            1.14582638001402        4.83052015451777        0.19181160858939
C            0.35342764070765        6.01575486650576        0.23489813550621
C           -0.99923990419975        5.96419890787074        0.18977204697585
H           -6.88331368760181        2.08890807333025       -0.19311453768704
H           -5.74244149846539        4.25516897093718       -0.04440201931214
H           -3.66281977407755        5.56191053060295        0.08920321687637
H            5.21737579234802        4.67168239564281        0.32501988077808
H            6.52635574979164        2.59761781946437        0.26571504483144
H            6.62209677022866        0.14182529380826        0.15260630628826
H            5.57978490773443       -4.47989864161759       -0.10117884424482
H            6.72074710833622       -2.31334530133874        0.04149346991661
H            3.50020536548471       -5.78667796985773       -0.23604068420073
H            1.42187333867012       -7.09676886047402       -0.36303474311866
H           -1.02774439332310       -7.18979300541655       -0.44648492443601
H           -3.20316087229643       -6.04128384696543       -0.46636018724052
H           -5.38029035253239       -4.89578862411660       -0.48109386109869
H           -6.68892888214536       -2.82190804546748       -0.42640957963451
H           -6.78444310977966       -0.36619473008863       -0.31495060478671
H            3.04001389590505        5.81689983932986        0.31299754821115
H            0.86473164634441        6.96476077736353        0.30564267642727
H           -1.58500818357152        6.87128984058621        0.22423090954575
