81
 energy: -156.402682634107 gnorm: 0.000161171683 xtb: 6.6.1 (8d0f1dd)
O            0.76695592754145       -0.91793605056804        4.38310201634271
C            0.35014149222265       -0.01055747097982        3.55680181183800
O            0.99328131128610        0.75827271241560        2.90411336171055
C           -1.21131386202993       -0.03119834637647        3.50696474982668
F           -1.70445708047028        1.02444532132707        2.86032128076698
F           -1.66731628652816       -1.13369806874019        2.89991562572116
F           -1.73852067982600       -0.01994225414836        4.74085268103331
H            1.74378737353015       -0.96338647076303        4.50045559346656
C           -5.71261277792672        2.24480520084203       -0.00508597347479
C           -5.07202554585553        3.44587504241208        0.00299099174067
C           -3.65232918823586        3.53749247454472       -0.00133309216361
C           -2.98721310017183        4.76203598417340        0.01612794396658
C           -1.59618419310142        4.84041455249531        0.01726711786110
C           -0.83043797119439        3.64569662681463       -0.00611294544757
C            0.58330475161000        3.70367281639671       -0.00089090294877
C            1.33940824497988        2.51274785783965       -0.02069345934785
C            2.74878524216536        2.56941391978979       -0.00803445451657
C            3.40265911479076        3.82929723337901        0.01997309916853
C            4.82896485364201        3.85051753900589        0.03044661920510
C            5.55410125741420        2.70656246024185        0.01648905471806
C            4.92523524529057        1.42635357351189       -0.00819069368532
C            5.65337609433983        0.23840655726129       -0.01911639883878
C            5.02557659168882       -1.00536564149968       -0.03797486424910
C            3.60723982409575       -1.06903095563165       -0.04789029577277
C            2.95045576196473       -2.32336850074320       -0.05796397519540
C            3.70522868936260       -3.52591594820599       -0.05990582063967
C            5.12848955284449       -3.43008263102402       -0.05643951803214
C            5.75695735831903       -2.23014624614007       -0.04548157439500
C            3.04007920410916       -4.75031502835239       -0.06234256749484
C            1.64903165065263       -4.82837054524700       -0.05966774428808
C            0.95432332285360       -6.07426158225344       -0.05738301711073
C           -0.39895572116275       -6.12965821711424       -0.05098722824860
C           -1.19368846150155       -4.94496674458938       -0.04742488938132
C           -0.53011453660984       -3.68994145065974       -0.05281398424911
C            0.88424634375768       -3.63210206683460       -0.05786049067289
C            1.54016952756791       -2.38250902276072       -0.05956761083156
C            0.78108078405450       -1.18356546437288       -0.06014620314371
C           -0.62848142164530       -1.24185053672627       -0.06113647791986
C           -1.28627770037699       -2.49866381451570       -0.05352533525509
C           -2.69577958493428       -2.55543464375676       -0.04387101768663
C           -3.34932082703716       -3.81548796294815       -0.03540919857656
C           -2.58611531371418       -4.98134052256234       -0.03890276738402
C           -4.77528575540213       -3.83795217390799       -0.02383531400882
C           -5.50040317651994       -2.69374732170174       -0.01883179870051
C           -4.87112197864421       -1.41432676001795       -0.02540188741995
C           -3.45339377402878       -1.35967426594273       -0.03993853266250
C           -2.80092872847943       -0.10824156394448       -0.04692648791532
C           -1.38322478042342       -0.04981758618076       -0.05969318314610
C           -0.72763132245912        1.19910195536128       -0.05149060486682
C           -1.48656487411847        2.39689097952953       -0.02986361881810
C           -2.89481811556790        2.33757774646839       -0.02303068439198
C           -3.55357630212806        1.08558728939595       -0.03149740296500
C           -4.96968617603717        1.01330597634865       -0.01848239256815
C           -5.60031911645224       -0.22688295814588       -0.01721167689240
C            0.68127649331512        1.25712577622437       -0.04670586037017
C            1.43587765003361        0.06597118070155       -0.05374809195937
C            2.85298844246290        0.12388179215473       -0.04234729651089
C            3.50651749813235        1.37414702469088       -0.02096016231478
C            2.63966033303833        4.99488801262486        0.03658576525182
C            1.24682732518324        4.95842794609290        0.02817000040279
C            0.45160641780285        6.14235324827905        0.04866824593898
C           -0.90184872506884        6.08617868617290        0.04317331805929
H           -5.63950058538904        4.36611110556374        0.01546749789609
H           -3.56441182758654        5.67583675429567        0.03305577581578
H            5.32083989714463        4.81230886546931        0.05034738413596
H            6.63392785419343        2.74076129048340        0.02480673189386
H            6.73337557079532        0.28292279444943       -0.01124174134027
H            5.69772022463897       -4.34823042824216       -0.06168205932702
H            6.83588869558506       -2.17556215151088       -0.04164261797985
H            3.61826555305045       -5.66353632356164       -0.06503821637186
H            1.54094235645228       -6.98143340824545       -0.06046806946712
H           -0.90986286554077       -7.08153711832368       -0.04863214167945
H           -3.08812739843178       -5.93861473772479       -0.03389046284031
H           -5.26712678696115       -4.79982022724263       -0.01807917441010
H           -6.58013818981377       -2.72596498523364       -0.00883026370008
H           -6.67953392885733       -0.26214554264331       -0.00680698375906
H            3.14092921417036        5.95250410960541        0.05850015738057
H            0.96127566205160        7.09482984893475        0.07020064269919
H           -1.48882081512431        6.99315710114438        0.06017204790810
O           -7.06535926646188        2.13303043450374       -0.00039297738353
H           -7.48079075781658        3.00881587449788        0.00752811258059
