80
 energy: -152.319168815410 gnorm: 0.000658999093 xtb: 6.6.1 (8d0f1dd)
O            0.71212608134873        1.21553586638005        3.83854863777470
C            0.21557180906402        0.27051675426556        4.57121339879640
O            0.25625982060656        0.15448465019339        5.76269191385990
C           -0.49437585693939       -0.79248974855723        3.67526342239803
F           -1.11397756962555       -1.71819698956190        4.41334407829944
F           -1.41559558364466       -0.23403162112849        2.88318776583795
F            0.38085411232956       -1.43095017676558        2.89028577753229
H            1.17353845228820        1.92021505045720        4.35008978434971
C           -5.71182733799174        2.28223170754529       -0.07903667260822
C           -5.07574957643508        3.47811816059626       -0.07675192969772
C           -3.65194737489443        3.56471462715701       -0.07293933338725
C           -2.97927105334362        4.78497596131615       -0.06954833425118
C           -1.58768077037982        4.85416474265752       -0.06520339400739
C           -0.83090798777753        3.65295062396086       -0.06384106468778
C            0.58388786121038        3.70214795208913       -0.05961142299842
C            1.33246285449845        2.50578534601308       -0.05821258422708
C            2.74294555760604        2.55359790517785       -0.05223334308871
C            3.40470200765441        3.80974305043583       -0.04993733448198
C            4.83118117330602        3.82197660913742       -0.04468791161541
C            5.54868482618106        2.67301576009282       -0.04043653705645
C            4.91187343954166        1.39645103197141       -0.04121076972904
C            5.63213334910920        0.20370188238419       -0.03723823019565
C            4.99612287378978       -1.03607399393587       -0.03962980183032
C            3.57747039761325       -1.09113101286644       -0.04764276380771
C            2.91245065392886       -2.34067711054182       -0.05167028542870
C            3.65967018908108       -3.54765877987275       -0.04523047707267
C            5.08352132866882       -3.46101382466048       -0.03786069432239
C            5.71989041658734       -2.26527424268987       -0.03567567840256
C            2.98696139518627       -4.76774521612072       -0.04694742025191
C            1.59543223215879       -4.83679084956436       -0.05311081650973
C            0.89282394165059       -6.07816164559222       -0.05164572558402
C           -0.46084290102231       -6.12511606623990       -0.05511770750111
C           -1.24770635141366       -4.93536104099703       -0.06169185082547
C           -0.57578986211542       -3.68482576891788       -0.06723316229382
C            0.83879098479407       -3.63569167104517       -0.06190495075606
C            1.50243929510975       -2.39072149563212       -0.06348178219104
C            0.75128921275896       -1.18786693669045       -0.07488928784145
C           -0.65833969673916       -1.23644673671633       -0.08440405653014
C           -1.32446669916966       -2.48868614769610       -0.07736659786147
C           -2.73486655324091       -2.53625561969772       -0.07612603649780
C           -3.39649163851535       -3.79230316927958       -0.07004354977842
C           -2.64072265940157       -4.96278462731181       -0.06415342478254
C           -4.82287021605749       -3.80456749482757       -0.07149701798374
C           -5.54036603667687       -2.65571314827060       -0.07570623530565
C           -4.90359009493527       -1.37930459065995       -0.07821821416990
C           -3.48463946870286       -1.33558380342510       -0.07964256902788
C           -2.82305831809907       -0.08944918573228       -0.08225627054117
C           -1.40571456213893       -0.04029166206828       -0.08520032099916
C           -0.74331588591769        1.20463983507942       -0.07427328294686
C           -1.49472135902513        2.40762569437805       -0.06969998502392
C           -2.90482968967443        2.35750183716824       -0.07378701412683
C           -3.56950051684752        1.10784714219120       -0.07816302670668
C           -4.98797874880331        1.05300729564154       -0.07888696468758
C           -5.62389638708254       -0.18668800385464       -0.07985007795820
C            0.66618212226186        1.25344458442663       -0.06514297197896
C            1.41343137018831        0.05718646454861       -0.06444091898893
C            2.83103766839046        0.10635078807281       -0.05185751372992
C            3.49282211751099        1.35281520571029       -0.04755780246073
C            2.64892707684892        4.98040070973922       -0.05304455364919
C            1.25579082590462        4.95289454620522       -0.05732984578226
C            0.46881306353818        6.14270833082896       -0.06008212756127
C           -0.88494118555846        6.09564045780295       -0.06351027300181
H           -6.79116514562758        2.23418318778840       -0.08128332540415
H           -5.63971021482199        4.39963500448523       -0.07741406769277
H           -3.55234325065507        5.70151883231858       -0.07095495716767
H            5.32982428317179        4.78032148495417       -0.04495963676666
H            6.62867887415265        2.69990155610551       -0.03729429864385
H            6.71243467470790        0.24062592444394       -0.03307701535911
H            5.64673786049316       -4.38299675404418       -0.03447786446281
H            6.79923390771341       -2.21811867084635       -0.03074658334050
H            3.55919922181143       -5.68489375626496       -0.04221377970310
H            1.47356833462135       -6.98922592339633       -0.04675557553048
H           -0.97771211178127       -7.07389979968241       -0.05290581942258
H           -3.14847927624607       -5.91716866510533       -0.06041851321782
H           -5.32093837440581       -4.76335313043180       -0.06882881384946
H           -6.62044151910737       -2.68313798727817       -0.07652070363038
H           -6.70426499720304       -0.22464951961196       -0.08048158804180
H            3.15651764548231        5.93465430291596       -0.05303987971063
H            0.98492684581311        7.09176031113756       -0.06012141505881
H           -1.46617232666013        7.00630340980764       -0.06626702310911
