81
 energy: -156.399704301457 gnorm: 0.000682209127 xtb: 6.6.1 (8d0f1dd)
O            0.72020696388459        1.23164043984533        3.84733802023546
C            0.20898954590595        0.29409717043178        4.57946210624289
O            0.22910318744113        0.18861055594012        5.77253635894122
C           -0.49118651282695       -0.77287653592986        3.68083948436787
F           -1.10591264552856       -1.70349000211830        4.41711597660979
F           -1.41535196355593       -0.21987040162868        2.88817659405826
F            0.38949255952819       -1.40415144763685        2.89681935213801
H            1.17614917379930        1.93908382921037        4.36000387731422
C           -5.73690812243467        2.24854615987286       -0.07806206867696
C           -5.09310335363707        3.44809323796586       -0.07474486720918
C           -3.67320988653038        3.53588099880402       -0.07090655659950
C           -3.00461291697596        4.75891627043744       -0.06769536493397
C           -1.61332029507655        4.83359098479509       -0.06342438917580
C           -0.85085085966013        3.63639329390702       -0.06114740647437
C            0.56325913596523        3.69083502754587       -0.05658507158618
C            1.31622047842701        2.49720645734188       -0.05480430252053
C            2.72636945075708        2.55029452341140       -0.04948558000378
C            3.38357106628111        3.80895287242077       -0.04764882870379
C            4.80997910869907        3.82628722278007       -0.04361036853070
C            5.53171044728599        2.68000736912551       -0.04074866085540
C            4.89955315321423        1.40108992530324       -0.04172863679282
C            5.62413294709223        0.21103665587831       -0.04048255701999
C            4.99261065014107       -1.03107107193393       -0.04348861217298
C            3.57420290667552       -1.09130957038111       -0.04880490818708
C            2.91366882549210       -2.34323527869078       -0.05317458944178
C            3.66539257976709       -3.54741187079383       -0.04952539825625
C            5.08887533040530       -3.45560976169094       -0.04551330001192
C            5.72088459134273       -2.25755097004333       -0.04319542565238
C            2.99728143116197       -4.77006926778743       -0.05114340973240
C            1.60613310607852       -4.84427303114780       -0.05542060590738
C            0.90820333364481       -6.08833344070173       -0.05440790481080
C           -0.44519262493440       -6.14038657284657       -0.05750075005188
C           -1.23658246989415       -4.95351829271046       -0.06333649968962
C           -0.56937316494942       -3.70038120072530       -0.06746754842162
C            0.84496881111809       -3.64596789051145       -0.06236800146970
C            1.50378263415616       -2.39843997034724       -0.06312786265178
C            0.74799788255460       -1.19837747734483       -0.07290523482427
C           -0.66148202037552       -1.25207774525035       -0.08237311454244
C           -1.32253744519558       -2.50706070101088       -0.07675425735305
C           -2.73265842304692       -2.56003109672627       -0.07697587298529
C           -3.38962212689965       -3.81853512995633       -0.07299086968904
C           -2.62925286468880       -4.98629144136757       -0.06701578882873
C           -4.81576172595834       -3.83701600394049       -0.07696083855195
C           -5.53790974860886       -2.69085306612640       -0.08099757253323
C           -4.90530125135802       -1.41305020390933       -0.08080837722596
C           -3.48732976404918       -1.36207721379450       -0.08031797324357
C           -2.83116695333383       -0.11275358549944       -0.08122567723274
C           -1.41360042760815       -0.05861971250023       -0.08294672215347
C           -0.75497771016285        1.18828214842715       -0.07131909381258
C           -1.51042947021732        2.38866608792326       -0.06698695461570
C           -2.91911080236093        2.33338973999117       -0.07176748101286
C           -3.58099277041860        1.08288096760384       -0.07706060327066
C           -4.99728207847469        1.01478681847390       -0.07887011338877
C           -5.63134868269402       -0.22362075246573       -0.08170487061630
C            0.65434467322858        1.24241174127678       -0.06185653817325
C            1.40590769741209        0.04898726435199       -0.06192998627140
C            2.82333831510721        0.10340611427747       -0.05061205914839
C            3.48063126082977        1.35226326264683       -0.04609780524265
C            2.62351603028679        4.97675833589252       -0.05082432245203
C            1.23045582920440        4.94408086240960       -0.05506547746028
C            0.43836456623702        6.13034493400778       -0.05919153817211
C           -0.91530757391492        6.07767448413004       -0.06287464261312
H           -5.65837005397088        4.36974297959985       -0.07460849976592
H           -3.57949720758424        5.67423638031402       -0.06941377499614
H            5.30516943572528        4.78648329297472       -0.04402821952408
H            6.61163484265031        2.71082104076928       -0.03889034075194
H            6.70432752034743        0.25186584916196       -0.03830889147146
H            5.65545524635138       -4.37555513640781       -0.04507848125921
H            6.80008166804662       -2.20644057049211       -0.04117316199928
H            3.57302193157155       -5.68504334157631       -0.04820992397548
H            1.49247991430514       -6.99715738335400       -0.05043614750967
H           -0.95858637898297       -7.09104630294704       -0.05585499436115
H           -3.13347912097436       -5.94250928763841       -0.06455059084903
H           -5.30972616791976       -4.79787243106901       -0.07653979877456
H           -6.61775483412778       -2.72098334919106       -0.08390808937593
H           -6.71067204763543       -0.25649487349976       -0.08343026134861
H            3.12762947953217        5.93292849648904       -0.05139209994914
H            0.95040067839145        7.08168923590327       -0.06035118773749
H           -1.49971503003595        6.98638799462004       -0.06697303944302
O           -7.08973206105304        2.14057182874503       -0.08119206309579
H           -7.50310962388515        3.01733145405058       -0.08029152015241
