81
 energy: -156.399762706567 gnorm: 0.000618315766 xtb: 6.6.1 (8d0f1dd)
O            1.24200783774537       -0.01068833234695        3.82073562899946
C            0.17630389271016        0.06840056371259        4.55167438156648
O            0.09879893421730        0.20960876517795        5.73858350418784
C           -1.10046493370396       -0.04116958405412        3.66038954971421
F           -2.20978314064385       -0.10879533813195        4.40281053022775
F           -1.22447788872673        1.02415331872156        2.86011001500677
F           -1.07424218136939       -1.12958498077097        2.88564497982552
H            2.08326121109548        0.05109544945089        4.33115502583270
C           -5.71370426667617        2.23981280779490       -0.03770799615240
C           -5.07024464935823        3.43944627047940       -0.03566309000290
C           -3.65036286194027        3.52774332665346       -0.04284901243323
C           -2.98222651995860        4.75083517343740       -0.03683372781116
C           -1.59101760088967        4.82590628663059       -0.04002715658580
C           -0.82829909487237        3.62913278044634       -0.05172029772510
C            0.58564128644668        3.68412828525033       -0.05140708133781
C            1.33892590578056        2.49092325755367       -0.05830224759516
C            2.74905782175001        2.54438284801811       -0.05763674472601
C            3.40595755256957        3.80313871284605       -0.05372120720492
C            4.83238258091415        3.82079593600033       -0.05903769086024
C            5.55456407882334        2.67481198400880       -0.06572111158507
C            4.92277090526411        1.39577170368708       -0.06717072872077
C            5.64776379173464        0.20587917554814       -0.07206384790941
C            5.01666314994523       -1.03648849158849       -0.07255403858736
C            3.59822062169340       -1.09708143308446       -0.06976875820947
C            2.93801470122146       -2.34941573939310       -0.07019262326962
C            3.69014075811394       -3.55352751026158       -0.07285884136615
C            5.11365771883490       -3.46118807834269       -0.07627385019121
C            5.74528670977401       -2.26285963893417       -0.07647665743584
C            3.02228846358206       -4.77641753806509       -0.07384477128108
C            1.63102078361929       -4.85103451509480       -0.07306790049404
C            0.93347478383364       -6.09534855149699       -0.07384395125176
C           -0.41995700112395       -6.14763066310735       -0.07223202459158
C           -1.21175695750079       -4.96093933471905       -0.07084890027308
C           -0.54516664146024       -3.70754028216435       -0.07335667245008
C            0.86919961434694       -3.65298027675008       -0.07272021769047
C            1.52781817858792       -2.40509354031257       -0.07145940219123
C            0.77145956675899       -1.20503715544030       -0.07529695357421
C           -0.63771480644780       -1.25955463418147       -0.08327197031550
C           -1.29837377960366       -2.51450833316436       -0.07700671506338
C           -2.70808143150839       -2.56808699890658       -0.07044511519493
C           -3.36490969604593       -3.82657857239918       -0.06434514062665
C           -2.60438348401643       -4.99421045934036       -0.06704429117657
C           -4.79101992874831       -3.84544590701367       -0.05545037983975
C           -5.51349279120286       -2.69951024652720       -0.05003506433831
C           -4.88112688693957       -1.42156533791124       -0.05414101341275
C           -3.46318769019333       -1.37048198615072       -0.06670682226035
C           -2.80744724390025       -0.12058184217692       -0.07271085943933
C           -1.38971796206990       -0.06602910163853       -0.08406757128516
C           -0.73168294165766        1.18150770327129       -0.07749736295098
C           -1.48734955260149        2.38148820932437       -0.06381192589927
C           -2.89580360459417        2.32579955011832       -0.05700079008881
C           -3.55750608408021        1.07514620933087       -0.06018839283065
C           -4.97382893264641        1.00638851458454       -0.04800131693047
C           -5.60745275770331       -0.23229711177617       -0.04642584850839
C            0.67748685155060        1.23596112493004       -0.06915646582050
C            1.42924952868147        0.04265752516386       -0.06988936483576
C            2.84682089747921        0.09754515468246       -0.06709761362804
C            3.50380310948546        1.34664168344057       -0.06405513216120
C            2.64556089627375        4.97059189203858       -0.04624410164836
C            1.25251903831294        4.93745062785493       -0.04361128518716
C            0.46011652680244        6.12335455455029       -0.03438370794500
C           -0.89349799717437        6.07015907182072       -0.03189738031011
H           -5.63569834611810        4.36098419012780       -0.02686953149471
H           -3.55737522642028        5.66604430740176       -0.02757165376750
H            5.32672332236210        4.78146626744882       -0.05873706909133
H            6.63442043031798        2.70665229377900       -0.07088888107366
H            6.72782354222866        0.24762630041334       -0.07646338372674
H            5.68059878129177       -4.38081813772201       -0.08004299922796
H            6.82437593484740       -2.21128722067229       -0.08047632780835
H            3.59818640096159       -5.69119311977475       -0.07624595220462
H            1.51778482378319       -7.00410272197607       -0.07546463421361
H           -0.93307922116962       -7.09840822209333       -0.07220161943376
H           -3.10875090769606       -5.95034172189120       -0.06453030394840
H           -5.28529245622465       -4.80613688239638       -0.05180280563998
H           -6.59333883629873       -2.72930303332679       -0.04174957976984
H           -6.68675482857517       -0.26508033376597       -0.03730407412039
H            3.14900855758095        5.92723355371084       -0.04315528938902
H            0.97181942627373        7.07495751450470       -0.02879810769821
H           -1.47826354853608        6.97869027523914       -0.02381367685059
O           -7.06666382711184        2.13127469342160       -0.03083851324384
H           -7.48030120159225        3.00789497164931       -0.02533065484536
