80
 energy: -152.322205114166 gnorm: 0.000211655409 xtb: 6.6.1 (8d0f1dd)
O            0.69500038567899       -0.85514798813462        4.38306184091854
C            0.26767707729513        0.04386088749379        3.55297975543112
O            0.90249437218513        0.81266995073042        2.89199454200700
C           -1.29355539862596        0.01190148970024        3.50847755961348
F           -1.79565891995378        1.06653859823648        2.86701717991551
F           -1.74258433291769       -1.09122310118414        2.89693233534978
F           -1.81835414101741        0.01332201126859        4.74311158968065
H            1.67293093954831       -0.89355115337482        4.49391016879839
C           -5.67863246304019        2.26967469533189        0.02078155697085
C           -5.04572447418759        3.46711740805051        0.02839740344895
C           -3.62225312515191        3.55773281167417        0.01782872348625
C           -2.95311102222493        4.77960953395174        0.03386313621483
C           -1.56181533581117        4.85271069580826        0.03010685274923
C           -0.80164236965810        3.65408842398107        0.00397739839667
C            0.61279191441942        3.70698911295813        0.00512772972742
C            1.36461519659685        2.51346874665480       -0.01766981617282
C            2.77438332411478        2.56506946842993       -0.00925939753368
C            3.43273718870992        3.82251224238683        0.01782971393685
C            4.85917738521733        3.83878908410189        0.02440891517843
C            5.58023462340854        2.69227745342264        0.00660065218512
C            4.94684003107643        1.41432789826663       -0.01823686219084
C            5.67075408375150        0.22377527855563       -0.03440468740670
C            5.03853849621214       -1.01773848420369       -0.05313770393558
C            3.61991760672195       -1.07642742768040       -0.05674834579175
C            2.95875863012288       -2.32844978207325       -0.06675621349658
C            3.70920383697026       -3.53367569223466       -0.07497709464479
C            5.13284615215987       -3.44279582362089       -0.07801395449894
C            5.76556551976736       -2.24510405047272       -0.06711393824633
C            3.03961575220215       -4.75562026317141       -0.07774153784339
C            1.64819998312544       -4.82875230407664       -0.07001110737502
C            0.94896438802171       -6.07206636450911       -0.06809488351460
C           -0.40456912045114       -6.12256591977248       -0.05796009137285
C           -1.19496575816434       -4.93509197401409       -0.04992537728540
C           -0.52685491736334       -3.68254975727115       -0.05402778499433
C            0.88775259980392       -3.62978624107953       -0.06291443232645
C            1.54833133734657       -2.38263712577290       -0.06373588574399
C            0.79369291197150       -1.18097387921038       -0.05947989445289
C           -0.61601411656008       -1.23430263374901       -0.05662963800288
C           -1.27871347398701       -2.48850109255171       -0.05015380550168
C           -2.68848041013191       -2.54006354092114       -0.03789561810240
C           -3.34648069096802       -3.79778616678203       -0.03096132879075
C           -2.58772181587489       -4.96628080850842       -0.03844678918825
C           -4.77266074218197       -3.81426277090852       -0.01687746712148
C           -5.49325348563781       -2.66745714281857       -0.00754017780677
C           -4.85999562525137       -1.38932220908477       -0.01212340696188
C           -3.44135241987717       -1.34168228172204       -0.03007584699712
C           -2.78368422943058       -0.09330072647907       -0.03632593931569
C           -1.36617273578019       -0.03963405607699       -0.05173390854895
C           -0.70696790162643        1.20738415940137       -0.04361675805007
C           -1.46196352579866        2.40764180936973       -0.01890871448864
C           -2.87159571358161        2.35325946760688       -0.00793024571392
C           -3.53303587635100        1.10206373194197       -0.01663040017378
C           -4.95127138494439        1.04279836205613        0.00130150236743
C           -5.58354628151958       -0.19875933028884        0.00126685912594
C            0.70215119908998        1.26022983487865       -0.04278183084850
C            1.45256842663954        0.06635659101151       -0.05326073426755
C            2.86996178567319        0.11917637585713       -0.04653480588598
C            3.52793661029677        1.36714294616400       -0.02592236686318
C            2.67388678214603        4.99084398031174        0.03710572258352
C            1.28094564157045        4.95933716793662        0.03250414935213
C            0.49073197160966        6.14674246831132        0.05496526648552
C           -0.86281536977145        6.09599014415914        0.05352808258125
H           -6.75779853145631        2.21844353926666        0.03113051177596
H           -5.61185032303731        4.38717442956646        0.04485754597754
H           -3.52857578739797        5.69454676758656        0.05334325788873
H            5.35443320223909        4.79878446816377        0.04429208337888
H            6.66016271263410        2.72271630113406        0.01165130468756
H            6.75089956906615        0.26449184347659       -0.03115819739795
H            5.69883254088963       -4.36288987115810       -0.08865036004900
H            6.84467266948823       -2.19434231552980       -0.06873619944635
H            3.61444249071886       -5.67092709917030       -0.08501804760350
H            1.53218151599100       -6.98140358131806       -0.07486776765772
H           -0.91881900407655       -7.07265395640191       -0.05619367228180
H           -3.09315170399568       -5.92179731115044       -0.03450559449810
H           -5.26846891713780       -4.77414895265404       -0.01257327571886
H           -6.57319674713625       -2.69711199133413        0.00462415101027
H           -6.66375807039015       -0.23928472850826        0.01507860093486
H            3.17853536098316        5.94663167641423        0.05792441003978
H            1.00440407060456        7.09702762375406        0.07445222092034
H           -1.44670302363559        7.00484941959933        0.07182918300516
