80
 energy: -152.319197315911 gnorm: 0.000472051214 xtb: 6.6.1 (8d0f1dd)
O            1.23322333154291        0.00540673426420        3.82561993952235
C            0.16611780162151        0.06728175726119        4.55629131522108
O            0.08597598446266        0.18698308932485        5.74539663005562
C           -1.10815999140379       -0.03044264980219        3.66006217200989
F           -2.22139985195174       -0.08945089901767        4.39718182605854
F           -1.21989893970119        1.03539946880890        2.85855653607132
F           -1.08700777827957       -1.11931492441770        2.88523829723051
H            2.07366336757476        0.06215577982577        4.33783566577303
C           -5.68738971563050        2.27005334481986       -0.02709690649726
C           -5.05161771738579        3.46605656948587       -0.02679708760645
C           -3.62791938428232        3.55320530174008       -0.03878762337502
C           -2.95572648240599        4.77357929242191       -0.03456797584422
C           -1.56425420470239        4.84321877284648       -0.04013906071707
C           -0.80717926950967        3.64244283352231       -0.05250158848959
C            0.60744327130757        3.69222842859999       -0.05274138731455
C            1.35637807796675        2.49631981300642       -0.05987344863143
C            2.76683085756690        2.54453893459626       -0.05825087099071
C            3.42824066099417        3.80079542768400       -0.05281365027882
C            4.85475726496345        3.81339997349460       -0.05565819147049
C            5.57275239340263        2.66476193526609       -0.06222719006564
C            4.93634116082528        1.38804931794181       -0.06620690890545
C            5.65706387701141        0.19549225651651       -0.07181742681889
C            5.02151466876974       -1.04455882549981       -0.07451514909503
C            3.60281681534875       -1.10000642109948       -0.07267828579434
C            2.93818324246101       -2.34998600128857       -0.07420749472805
C            3.68585140916135       -3.55688426690059       -0.07759458265844
C            5.10974806122440       -3.46965543951517       -0.08081990648331
C            5.74568486757993       -2.27362024975367       -0.07952941117776
C            3.01344137402907       -4.77723402309988       -0.07896235962614
C            1.62179205848945       -4.84675680304799       -0.07739743947705
C            0.91959606939132       -6.08840976741299       -0.07753762938052
C           -0.43410064860497       -6.13564288825106       -0.07452681526435
C           -1.22143619053114       -4.94608880895807       -0.07237929261056
C           -0.55018657735161       -3.69526014517050       -0.07573633925250
C            0.86443271240738       -3.64591755946554       -0.07640482455710
C            1.52784488605796       -2.40054040891085       -0.07524504195725
C            0.77607685364018       -1.19769852599620       -0.07834821803025
C           -0.63325420011521       -1.24715813589529       -0.08526374876610
C           -1.29893966615917       -2.49940877924086       -0.07846273194571
C           -2.70890430274147       -2.54763103801598       -0.06981176230162
C           -3.37034054453167       -3.80369047752843       -0.06277504489621
C           -2.61438815353434       -4.97403257750668       -0.06669614438941
C           -4.79666138982231       -3.81639645817734       -0.05139031486925
C           -5.51450711505319       -2.66779022073416       -0.04410318958277
C           -4.87803132393023       -1.39121993828096       -0.04877301168809
C           -3.45914467424500       -1.34732522999330       -0.06441929395355
C           -2.79803664372777       -0.10058904789005       -0.07138747944063
C           -1.38054362072040       -0.05095333295679       -0.08501054624518
C           -0.71876562700134        1.19463718225841       -0.07879405788808
C           -1.47042561018470        2.39718725996298       -0.06403392082429
C           -2.88027379537453        2.34658359974162       -0.05468150061442
C           -3.54471744734290        1.09676783412603       -0.05674881930012
C           -4.96317922157613        1.04119927542755       -0.04063160251142
C           -5.59860528512347       -0.19876801451662       -0.03843457989589
C            0.69057505448882        1.24380137595621       -0.07126255587685
C            1.43806413500130        0.04769818985103       -0.07263536282656
C            2.85580685141800        0.09736422279952       -0.06945078238043
C            3.51723877597427        1.34407184986666       -0.06481396221767
C            2.67208795618814        4.97108575831739       -0.04592640987067
C            1.27897883375390        4.94307614922598       -0.04456943454768
C            0.49164664504974        6.13252693178824       -0.03577223615798
C           -0.86203565072938        6.08490234966072       -0.03300384348242
H           -6.76669146548426        2.22157999362387       -0.01608604325661
H           -5.61569658142622        4.38748426065405       -0.01574434430263
H           -3.52910755062643        5.68999027673851       -0.02443305432005
H            5.35252390562813        4.77224265368171       -0.05333010442498
H            6.65269899878775        2.69271964648176       -0.06524941433139
H            6.73725305943394        0.23335421070395       -0.07496101802436
H            5.67335889239316       -4.39131037794020       -0.08537784902734
H            6.82493818941827       -2.22598114480138       -0.08306566149474
H            3.58589284821957       -5.69415915627257       -0.08189257750441
H            1.50042602438780       -6.99938540089391       -0.07960589116348
H           -0.95066656679842       -7.08456545556152       -0.07376786860900
H           -3.12226717064726       -5.92834260882909       -0.06337400589880
H           -5.29498927892595       -4.77503848279473       -0.04721270407180
H           -6.59456373674726       -2.69488491900189       -0.03374360224388
H           -6.67894230087287       -0.23661292503325       -0.02641840908028
H            3.17897027320673        5.92583366732231       -0.04198057182934
H            1.00739140418900        7.08186489145298       -0.03058315360951
H           -1.44366624015372        6.99536871840011       -0.02514166517887
